 Gaussian 16, Revision C.01,
 Gaussian 16:  ES64L-G16RevC.01  3-Jul-2019

 ----------------------------------------------------------------------
 #p pop=(regular,nbo,savenbos) freq=noraman def2svp empiricaldispersion
 =gd3bj output=wfx pbe1pbe
 ----------------------------------------------------------------------

 -----------------------------------------
 ADALIB_Complex_23_Ligand_0_ON_Cu_oriented
 -----------------------------------------
 Symbolic Z-matrix:
 Charge = -2 Multiplicity = 1

                         Standard orientation:
 ---------------------------------------------------------------------
 Center     Atomic      Atomic             Coordinates (Angstroms)
 Number     Number       Type             X           Y           Z
 ---------------------------------------------------------------------
      1          6           0        1.356585   -0.608039   -0.087512
      2          6           0        0.669513    0.607589   -0.713242
      3          6           0       -0.806604    0.389527   -1.005178
      4          6           0       -1.617599   -0.053065    0.201446
      5          1           0        0.332969    1.818297    0.681761
      6          1           0        1.125574    0.722946   -1.547680
      7          1           0       -0.922186   -0.246520   -1.652234
      8          1           0       -1.185140    1.161575   -1.329565
      9          7           0        0.927140    1.788899    0.137456
     10          8           0        2.298341   -0.365411    0.736339
     11          8           0        1.033028   -1.749213   -0.439107
     12          8           0       -1.110567    0.075017    1.328293
     13          8           0       -2.764800   -0.523608   -0.017911
     14          1           0        0.899408    2.511060   -0.348473
 ---------------------------------------------------------------------

 SCF Done:  E(RPBE1PBE) =  -509.940503250     A.U. after   14 cycles

 The electronic state is 1-A.
 Alpha  occ. eigenvalues --  -18.78677 -18.78409 -18.77279 -18.75819 -14.01204
 Alpha  occ. eigenvalues --   -9.95387  -9.93586  -9.90824  -9.86061  -0.68524
 Alpha  occ. eigenvalues --   -0.66527  -0.62261  -0.58538  -0.55916  -0.46637
 Alpha  occ. eigenvalues --   -0.35597  -0.24696  -0.18633  -0.17478  -0.12883
 Alpha  occ. eigenvalues --   -0.11893  -0.11617  -0.08132  -0.06487  -0.05069
 Alpha  occ. eigenvalues --   -0.03161  -0.02821  -0.01281   0.05950   0.09693
 Alpha  occ. eigenvalues --    0.10177   0.11682   0.11894   0.11929   0.14409
 Alpha virt. eigenvalues --    0.35393   0.41114   0.41949   0.42991   0.44488
 Alpha virt. eigenvalues --    0.47951   0.50141   0.56946   0.57695   0.59784
 Alpha virt. eigenvalues --    0.62792   0.65023   0.70636   0.76631   0.78176

 Mulliken charges:
               1
     1  C    0.112133
     2  C   -0.020358
     3  C    0.230721
     4  C    0.067515
     5  H   -0.064031
     6  H   -0.125799
     7  H   -0.126688
     8  H   -0.151864
     9  N   -0.004554
    10  O   -0.496558
    11  O   -0.454015
    12  O   -0.424049
    13  O   -0.507539
    14  H   -0.034913
 Sum of Mulliken charges =  -2.00000

 Dipole moment (field-independent basis, Debye):
    X=             -0.1394    Y=              5.7006    Z=             -4.3595  Tot=              7.1779
 Quadrupole moment (field-independent basis, Debye-Ang):
   XX=            -99.2288   YY=            -64.8166   ZZ=            -62.1581
   XY=             -0.1328   XZ=             -2.6991   YZ=             -2.4256

  Exact polarizability:      60.709       4.924      52.747       6.555       1.310      51.256
 Approx polarizability:      83.689      11.911      73.539      16.606       6.846      78.099

 Summary of Natural Population Analysis:

                                       Natural Population
                Natural  -----------------------------------------------
    Atom  No    Charge         Core      Valence    Rydberg      Total
 -----------------------------------------------------------------------
      C    1    0.80094      1.99945     3.12380    0.07581     5.19906
      C    2   -0.09932      1.99892     4.07671    0.02370     6.09932
      C    3   -0.48479      1.99876     4.46325    0.02277     6.48479
      C    4    0.81534      1.99955     3.11091    0.07420     5.18466
      H    5    0.28642      0.00000     0.70266    0.01091     0.71358
      H    6    0.14341      0.00000     0.85071    0.00588     0.85659
      H    7    0.17021      0.00000     0.82032    0.00948     0.82979
      H    8    0.14497      0.00000     0.84827    0.00676     0.85503
      N    9   -0.75102      1.99926     5.72136    0.03040     7.75102
      O   10   -0.82745      1.99976     6.81939    0.00830     8.82745
      O   11   -0.81959      1.99973     6.81044    0.00942     8.81959
      O   12   -0.80216      1.99974     6.79328    0.00915     8.80216
      O   13   -0.84456      1.99975     6.83590    0.00891     8.84456
      H   14    0.26760      0.00000     0.72542    0.00698     0.73240
 =======================================================================
   * Total *   -2.00000     17.99493    51.70242    0.30265    70.00000

 ******   11 imaginary frequencies (negative Signs) ******

                      1                      2                      3
                      A                      A                      A
 Frequencies --  -2464.1595             -2150.7819             -1637.1428
 Red. masses --      1.0694                 1.0736                 1.0433
 Frc consts  --      3.8259                 2.9262                 1.6474
 IR Inten    --     76.8920               112.8814                 7.0473

                      4                      5                      6
                      A                      A                      A
 Frequencies --  -1617.5275             -1263.9302             -1186.8222
 Red. masses --      1.0739                 1.1215                 1.0579
 Frc consts  --      1.6555                 1.0556                 0.8780
 IR Inten    --     73.0087                 9.5446                 2.9979

                      7                      8                      9
                      A                      A                      A
 Frequencies --   -828.6101              -727.2588              -601.5115
 Red. masses --      1.1759                 1.1580                 1.2430
 Frc consts  --      0.4757                 0.3609                 0.2650
 IR Inten    --     16.7586                 2.8331                18.0613

                     10                     11                     12
                      A                      A                      A
 Frequencies --   -548.9995               -45.3701                64.0185
 Red. masses --      1.2734                15.1475                14.2967
 Frc consts  --      0.2261                 0.0184                 0.0345
 IR Inten    --      8.0949                 0.2975                 0.7630

                     13                     14                     15
                      A                      A                      A
 Frequencies --    151.6716               352.1763               372.2099
 Red. masses --     11.4546                 7.5288                 6.0448
 Frc consts  --      0.1553                 0.5502                 0.4934
 IR Inten    --      1.8459                 5.7965                 6.5010

                     16                     17                     18
                      A                      A                      A
 Frequencies --    424.9736               493.1246               609.6481
 Red. masses --      7.1123                 5.7748                 5.9979
 Frc consts  --      0.7568                 0.8274                 1.3134
 IR Inten    --      2.7396                10.6181                 6.2076

                     19                     20                     21
                      A                      A                      A
 Frequencies --    696.3685               773.0357               809.1377
 Red. masses --      6.5729                 5.2823                 5.9663
 Frc consts  --      1.8780                 1.8598                 2.3015
 IR Inten    --     36.0846                29.4184                 1.9158

                     22                     23                     24
                      A                      A                      A
 Frequencies --    873.0756               895.7107               966.6003
 Red. masses --      8.1945                 9.4016                 7.0409
 Frc consts  --      3.6802                 4.4441                 3.8759
 IR Inten    --     14.1046                21.9936                16.8782

                     25                     26                     27
                      A                      A                      A
 Frequencies --   1056.5850              1154.0597              1183.3707
 Red. masses --      6.9078                 6.4670                 7.3931
 Frc consts  --      4.5436                 5.0747                 6.0998
 IR Inten    --      2.1168                25.0151                17.9232

                     28                     29                     30
                      A                      A                      A
 Frequencies --   1454.5775              1498.6968              1771.1422
 Red. masses --     12.4526                12.6476                12.8627
 Frc consts  --     15.5233                16.7373                23.7733
 IR Inten    --    258.0832               246.4199               123.1871

                     31                     32                     33
                      A                      A                      A
 Frequencies --   1781.8781              4619.2345              5089.7007
 Red. masses --     12.5242                 1.0864                 1.0645
 Frc consts  --     23.4291                13.6574                16.2466
 IR Inten    --    795.4959                55.6608                36.7096

                     34                     35                     36
                      A                      A                      A
 Frequencies --   5251.2655              5625.8554              6897.1672
 Red. masses --      1.1027                 1.0680                 1.0763
 Frc consts  --     17.9155                19.9155                30.1663
 IR Inten    --     11.0360                15.1307                26.3130

 - Thermochemistry -
 -------------------
 Temperature   298.150 Kelvin.  Pressure   1.00000 Atm.
 Atom     1 has atomic number  6 and mass  12.00000

 Molecular mass:   131.02186 amu.
 Principal axes and moments of inertia in atomic units:
                           1         2         3
     Eigenvalues --   674.492391403.978701604.37696
           X            0.99991   0.01249   0.00445
           Y           -0.01232   0.99926  -0.03654
           Z           -0.00491   0.03648   0.99932
 This molecule is an asymmetric top.
 Rotational symmetry number  1.
 Warning -- assumption of classical behavior for rotation
           may cause significant error
 Rotational temperatures (Kelvin)      0.12841     0.06169     0.05399
 Rotational constants (GHZ):           2.67570     1.28545     1.12489
   11 imaginary frequencies ignored.
 Zero-point vibrational energy     268354.0 (Joules/Mol)
                                   64.13814 (Kcal/Mol)
 Warning -- explicit consideration of   7 degrees of freedom as
           vibrations may cause significant error
 Vibrational temperatures:     92.11   218.22   506.70   535.53   611.44
          (Kelvin)            709.50   877.15  1001.92  1112.23  1164.17
                             1256.16  1288.73  1390.72  1520.19  1660.43
                             1702.61  2092.81  2156.29  2548.28  2563.73
                             6646.05  7322.94  7555.40  8094.35  9923.49

 Zero-point correction=                           0.102211 (Hartree/Particle)
 Thermal correction to Energy=                    0.108370
 Thermal correction to Enthalpy=                  0.109314
 Thermal correction to Gibbs Free Energy=         0.070415
 Sum of electronic and zero-point Energies=           -509.838293
 Sum of electronic and thermal Energies=              -509.832133
 Sum of electronic and thermal Enthalpies=            -509.831189
 Sum of electronic and thermal Free Energies=         -509.870089

                     E (Thermal)             CV                S
                      KCal/Mol        Cal/Mol-Kelvin    Cal/Mol-Kelvin
 Total                   68.003             21.244             81.871
 Electronic               0.000              0.000              0.000
 Translational            0.889              2.981             40.523
 Rotational               0.889              2.981             28.809
 Vibrational             66.226             15.282             12.539
 Vibration     1          0.597              1.971              4.329
 Vibration     2          0.619              1.901              2.651
 Vibration     3          0.729              1.571              1.156
 Vibration     4          0.744              1.529              1.071
 Vibration     5          0.787              1.416              0.875
 Vibration     6          0.849              1.265              0.676
 Vibration     7          0.969              1.011              0.433

 Normal termination of Gaussian 16 at Mon Mar  6 10:25:53 2023.
