 Gaussian 16, Revision C.01,
 Gaussian 16:  ES64L-G16RevC.01  3-Jul-2019

 ----------------------------------------------------------------------
 #p pop=(regular,nbo,savenbos) freq=noraman def2svp empiricaldispersion
 =gd3bj output=wfx pbe1pbe
 ----------------------------------------------------------------------

 ----------------------------------------
 AFEHUP_Complex_1_Ligand_0_ON_Cu_oriented
 ----------------------------------------
 Symbolic Z-matrix:
 Charge = -1 Multiplicity = 1

                         Standard orientation:
 ---------------------------------------------------------------------
 Center     Atomic      Atomic             Coordinates (Angstroms)
 Number     Number       Type             X           Y           Z
 ---------------------------------------------------------------------
      1          8           0       -0.758309   -1.514300   -0.137556
      2          7           0       -1.024017    0.664327   -0.559677
      3          6           0       -0.197007   -0.293849   -0.291759
      4          6           0       -2.403977    0.133204   -0.513421
      5          1           0       -2.866765    0.338143   -1.352971
      6          6           0       -2.171079   -1.369569   -0.407247
      7          1           0       -2.409565   -1.813289   -1.235888
      8          1           0       -2.698990   -1.748345    0.313238
      9          6           0       -3.178656    0.718454    0.657667
     10          1           0       -2.799521    0.391121    1.488487
     11          6           0       -4.651629    0.348710    0.599505
     12          1           0       -4.741025   -0.606903    0.566008
     13          8           0        1.249946    2.198382   -0.355955
     14          6           0        1.863382    1.069326   -0.107988
     15          6           0        3.237797    1.090635    0.173738
     16          1           0        3.675986    1.909822    0.217407
     17          6           0        3.958057   -0.066085    0.388177
     18          1           0        4.868642   -0.016024    0.569992
     19          6           0        3.331385   -1.305732    0.334598
     20          1           0        3.820997   -2.086722    0.455272
     21          6           0        1.994063   -1.360143    0.099168
     22          1           0        1.572654   -2.189598    0.077263
     23          6           0        1.225654   -0.199055   -0.111800
     24          1           0       -5.097620    0.684965    1.380281
     25          1           0       -3.090482    1.684188    0.649307
     26          1           0       -5.047219    0.734329   -0.186395
 ---------------------------------------------------------------------

 SCF Done:  E(RPBE1PBE) =  -630.244299429     A.U. after   17 cycles

 The electronic state is 1-A.
 Alpha  occ. eigenvalues --  -19.09572 -18.93694 -14.19409 -10.15232 -10.13474
 Alpha  occ. eigenvalues --  -10.11382 -10.08760 -10.08737 -10.08483 -10.05486
 Alpha  occ. eigenvalues --  -10.05461 -10.05037 -10.03772 -10.02966  -0.96059
 Alpha  occ. eigenvalues --   -0.77662  -0.75721  -0.71005  -0.69587  -0.66013
 Alpha  occ. eigenvalues --   -0.60625  -0.57412  -0.57240  -0.50415  -0.49196
 Alpha  occ. eigenvalues --   -0.45546  -0.42573  -0.41051  -0.39030  -0.37000
 Alpha  occ. eigenvalues --   -0.35953  -0.35109  -0.33055  -0.31709  -0.29615
 Alpha  occ. eigenvalues --   -0.28814  -0.27605  -0.26327  -0.25788  -0.25725
 Alpha  occ. eigenvalues --   -0.23527  -0.22137  -0.21585  -0.20832  -0.17630
 Alpha  occ. eigenvalues --   -0.14491  -0.11912  -0.11046  -0.08583  -0.02493
 Alpha  occ. eigenvalues --   -0.01609
 Alpha virt. eigenvalues --    0.13706   0.17593   0.20445   0.21508   0.22320
 Alpha virt. eigenvalues --    0.23280   0.23943   0.24171   0.25286   0.26671
 Alpha virt. eigenvalues --    0.27359   0.28532   0.30179   0.30754   0.31803

 Mulliken charges:
               1
     1  O   -0.387851
     2  N   -0.233763
     3  C    0.151991
     4  C   -0.089520
     5  H   -0.054595
     6  C    0.427304
     7  H   -0.048242
     8  H   -0.063824
     9  C    0.123805
    10  H   -0.041420
    11  C    0.127845
    12  H   -0.045887
    13  O   -0.435450
    14  C    0.168351
    15  C    0.005251
    16  H   -0.166439
    17  C    0.104849
    18  H   -0.144988
    19  C    0.033960
    20  H   -0.155413
    21  C    0.118574
    22  H   -0.149409
    23  C   -0.158801
    24  H   -0.035002
    25  H   -0.019922
    26  H   -0.031403
 Sum of Mulliken charges =  -1.00000

 Dipole moment (field-independent basis, Debye):
    X=             -6.4762    Y=             -4.9331    Z=              0.9498  Tot=              8.1963
 Quadrupole moment (field-independent basis, Debye-Ang):
   XX=            -99.5794   YY=           -100.4953   ZZ=            -85.8154
   XY=             -2.3280   XZ=              0.8777   YZ=              3.5790

  Exact polarizability:     193.757      -4.493     121.245      10.841      -2.769      71.582
 Approx polarizability:     248.773     -21.765     217.929      23.170     -13.414     107.863

 Summary of Natural Population Analysis:

                                       Natural Population
                Natural  -----------------------------------------------
    Atom  No    Charge         Core      Valence    Rydberg      Total
 -----------------------------------------------------------------------
      O    1   -0.59170      1.99968     6.58228    0.00974     8.59170
      N    2   -0.57050      1.99933     5.55445    0.01673     7.57050
      C    3    0.59077      1.99903     3.36761    0.04259     5.40923
      C    4   -0.03393      1.99903     4.01443    0.02047     6.03393
      H    5    0.16760      0.00000     0.82772    0.00468     0.83240
      C    6   -0.01065      1.99884     3.99358    0.01823     6.01065
      H    7    0.15118      0.00000     0.84511    0.00371     0.84882
      H    8    0.15040      0.00000     0.84594    0.00366     0.84960
      C    9   -0.35609      1.99906     4.34237    0.01467     6.35609
      H   10    0.17773      0.00000     0.81798    0.00430     0.82227
      C   11   -0.54790      1.99918     4.54064    0.00808     6.54790
      H   12    0.17044      0.00000     0.82644    0.00312     0.82956
      O   13   -0.72905      1.99980     6.72151    0.00774     8.72905
      C   14    0.40500      1.99887     3.55709    0.03904     5.59500
      C   15   -0.26383      1.99899     4.24492    0.01992     6.26383
      H   16    0.16066      0.00000     0.83368    0.00566     0.83934
      C   17   -0.18263      1.99913     4.16892    0.01458     6.18263
      H   18    0.14640      0.00000     0.84990    0.00371     0.85360
      C   19   -0.29618      1.99910     4.28011    0.01697     6.29618
      H   20    0.15224      0.00000     0.84434    0.00343     0.84776
      C   21   -0.14465      1.99907     4.12996    0.01562     6.14465
      H   22    0.16322      0.00000     0.83261    0.00417     0.83678
      C   23   -0.25421      1.99885     4.23615    0.01921     6.25421
      H   24    0.17955      0.00000     0.81767    0.00278     0.82045
      H   25    0.19153      0.00000     0.80322    0.00525     0.80847
      H   26    0.17461      0.00000     0.82214    0.00325     0.82539
 =======================================================================
   * Total *   -1.00000     27.98795    73.70074    0.31131   102.00000

 ******   19 imaginary frequencies (negative Signs) ******

                      1                      2                      3
                      A                      A                      A
 Frequencies --  -1478.9264             -1402.6484             -1378.4817
 Red. masses --      1.0894                 1.0577                 1.0285
 Frc consts  --      1.4038                 1.2260                 1.1515
 IR Inten    --     70.8722                 0.3016                 0.0359

                      4                      5                      6
                      A                      A                      A
 Frequencies --  -1279.6370             -1225.7753             -1088.3961
 Red. masses --      1.0303                 1.0451                 1.0474
 Frc consts  --      0.9940                 0.9252                 0.7310
 IR Inten    --      0.9309                 0.2052                 4.5371

                      7                      8                      9
                      A                      A                      A
 Frequencies --  -1037.0546             -1017.2589              -991.3938
 Red. masses --      1.0597                 1.0561                 1.0548
 Frc consts  --      0.6715                 0.6439                 0.6108
 IR Inten    --      1.7039                10.9830                 0.1627

                     10                     11                     12
                      A                      A                      A
 Frequencies --   -988.9417              -921.9197              -818.3927
 Red. masses --      1.0726                 1.1171                 1.0820
 Frc consts  --      0.6181                 0.5594                 0.4270
 IR Inten    --      1.2560                 5.2766                11.5147

                     13                     14                     15
                      A                      A                      A
 Frequencies --   -766.1556              -527.4879              -504.8856
 Red. masses --      1.0781                 1.4572                 1.3510
 Frc consts  --      0.3729                 0.2389                 0.2029
 IR Inten    --     12.3914                 4.0483                 2.2929

                     16                     17                     18
                      A                      A                      A
 Frequencies --   -454.3066              -338.7300              -242.2886
 Red. masses --      1.3336                 2.1648                 2.1071
 Frc consts  --      0.1622                 0.1463                 0.0729
 IR Inten    --      4.2020                11.3476                10.4942

                     19                     20                     21
                      A                      A                      A
 Frequencies --   -190.5209               173.8812               280.1503
 Red. masses --      1.8701                 8.9295                 3.8460
 Frc consts  --      0.0400                 0.1591                 0.1778
 IR Inten    --     13.6335                 0.7442                 0.8810

                     22                     23                     24
                      A                      A                      A
 Frequencies --    297.2933               339.9132               347.6671
 Red. masses --      7.0868                 2.1983                 1.9226
 Frc consts  --      0.3690                 0.1496                 0.1369
 IR Inten    --      2.3212                 1.3748                20.1978

                     25                     26                     27
                      A                      A                      A
 Frequencies --    385.9910               476.6326               518.7268
 Red. masses --      6.6214                 4.6635                 3.4915
 Frc consts  --      0.5812                 0.6242                 0.5535
 IR Inten    --     16.5089                 0.6500                 0.2914

                     28                     29                     30
                      A                      A                      A
 Frequencies --    553.3406               609.6723               643.7636
 Red. masses --      3.2179                 3.9152                 4.9409
 Frc consts  --      0.5805                 0.8574                 1.2065
 IR Inten    --      1.0787                16.0936                 0.8430

                     31                     32                     33
                      A                      A                      A
 Frequencies --    647.0606               665.4737               689.7932
 Red. masses --      5.9807                 2.5333                 4.2070
 Frc consts  --      1.4753                 0.6610                 1.1794
 IR Inten    --      1.3835                 3.9621                 8.7471

                     34                     35                     36
                      A                      A                      A
 Frequencies --    719.2170               751.4153               768.1096
 Red. masses --      4.5897                 4.9778                 4.8569
 Frc consts  --      1.3988                 1.6560                 1.6883
 IR Inten    --      0.2465                 6.2398                 6.5558

                     37                     38                     39
                      A                      A                      A
 Frequencies --    793.5029               841.8179               854.2365
 Red. masses --      2.8449                 2.5513                 8.5642
 Frc consts  --      1.0554                 1.0653                 3.6821
 IR Inten    --      4.5316                 4.2468                14.5766

                     40                     41                     42
                      A                      A                      A
 Frequencies --    861.6368               918.6531               966.3447
 Red. masses --      3.9736                 6.1987                 8.8390
 Frc consts  --      1.7381                 3.0822                 4.8632
 IR Inten    --      0.6841                 3.4125                18.9836

                     43                     44                     45
                      A                      A                      A
 Frequencies --    972.7471               988.1308              1008.4970
 Red. masses --      1.4388                 2.6771                 1.1396
 Frc consts  --      0.8021                 1.5401                 0.6829
 IR Inten    --      4.6294                14.9222                 6.5835

                     46                     47                     48
                      A                      A                      A
 Frequencies --   1020.2773              1041.3817              1070.8787
 Red. masses --      2.8446                 1.1502                 1.9737
 Frc consts  --      1.7447                 0.7349                 1.3336
 IR Inten    --      4.1048                 9.6884                 9.3691

                     49                     50                     51
                      A                      A                      A
 Frequencies --   1113.2565              1120.3975              1167.9182
 Red. masses --      3.1280                 4.1317                 4.7580
 Frc consts  --      2.2841                 3.0558                 3.8238
 IR Inten    --      6.8788                10.2886                60.0046

                     52                     53                     54
                      A                      A                      A
 Frequencies --   1236.3068              1277.8507              1356.9575
 Red. masses --      5.9652                 8.5461                 9.5275
 Frc consts  --      5.3719                 8.2221                10.3362
 IR Inten    --     11.5203               103.5513                46.5500

                     55                     56                     57
                      A                      A                      A
 Frequencies --   1447.0757              1465.0468              1521.1855
 Red. masses --     10.2788                10.7279                 9.5377
 Frc consts  --     12.6816                13.5666                13.0034
 IR Inten    --     70.2221               266.0756                88.8361

                     58                     59                     60
                      A                      A                      A
 Frequencies --   1614.7626              1686.2070              1690.9810
 Red. masses --     10.6327                10.5336                11.9153
 Frc consts  --     16.3347                17.6462                20.0740
 IR Inten    --    123.6804               111.1975               554.3746

                     61                     62                     63
                      A                      A                      A
 Frequencies --   4348.2261              4420.3313              4427.5877
 Red. masses --      1.0878                 1.0584                 1.0604
 Frc consts  --     12.1173                12.1848                12.2474
 IR Inten    --     40.7702                45.2564                 7.9651

                     64                     65                     66
                      A                      A                      A
 Frequencies --   4461.4816              4544.0721              4550.3594
 Red. masses --      1.0320                 1.1118                 1.1089
 Frc consts  --     12.1028                13.5261                13.5284
 IR Inten    --     22.7328                16.3846                 5.8654

                     67                     68                     69
                      A                      A                      A
 Frequencies --   4666.4592              4669.8225              5013.1546
 Red. masses --      1.1066                 1.1068                 1.0857
 Frc consts  --     14.1978                14.2203                16.0765
 IR Inten    --      9.0558                 9.8670                 1.8297

                     70                     71                     72
                      A                      A                      A
 Frequencies --   5020.6565              5030.0720              5036.7591
 Red. masses --      1.0879                 1.0899                 1.0919
 Frc consts  --     16.1570                16.2469                16.3202
 IR Inten    --      5.8334                10.5067                16.7071

 - Thermochemistry -
 -------------------
 Temperature   298.150 Kelvin.  Pressure   1.00000 Atm.
 Atom     1 has atomic number  8 and mass  15.99491

 Molecular mass:   190.08680 amu.
 Principal axes and moments of inertia in atomic units:
                           1         2         3
     Eigenvalues --  1006.134444688.499365442.97366
           X            0.99997  -0.00644  -0.00305
           Y            0.00648   0.99990   0.01240
           Z            0.00297  -0.01242   0.99992
 This molecule is an asymmetric top.
 Rotational symmetry number  1.
 Warning -- assumption of classical behavior for rotation
           may cause significant error
 Rotational temperatures (Kelvin)      0.08609     0.01847     0.01591
 Rotational constants (GHZ):           1.79374     0.38493     0.33157
   19 imaginary frequencies ignored.
 Zero-point vibrational energy     556820.6 (Joules/Mol)
                                  133.08332 (Kcal/Mol)
 Warning -- explicit consideration of  10 degrees of freedom as
           vibrations may cause significant error
 Vibrational temperatures:    250.18   403.07   427.74   489.06   500.22
          (Kelvin)            555.35   685.77   746.33   796.13   877.18
                              926.23   930.98   957.47   992.46  1034.79
                             1081.12  1105.14  1141.67  1211.19  1229.06
                             1239.70  1321.74  1390.35  1399.57  1421.70
                             1451.00  1467.95  1498.32  1540.76  1601.73
                             1612.00  1680.37  1778.77  1838.54  1952.36
                             2082.02  2107.88  2188.65  2323.28  2426.08
                             2432.94  6256.13  6359.87  6370.31  6419.08
                             6537.91  6546.95  6713.99  6718.83  7212.81
                             7223.60  7237.15  7246.77

 Zero-point correction=                           0.212082 (Hartree/Particle)
 Thermal correction to Energy=                    0.219745
 Thermal correction to Enthalpy=                  0.220689
 Thermal correction to Gibbs Free Energy=         0.178734
 Sum of electronic and zero-point Energies=           -630.032218
 Sum of electronic and thermal Energies=              -630.024554
 Sum of electronic and thermal Enthalpies=            -630.023610
 Sum of electronic and thermal Free Energies=         -630.065565

                     E (Thermal)             CV                S
                      KCal/Mol        Cal/Mol-Kelvin    Cal/Mol-Kelvin
 Total                  137.892             33.418             88.301
 Electronic               0.000              0.000              0.000
 Translational            0.889              2.981             41.633
 Rotational               0.889              2.981             31.618
 Vibrational            136.115             27.457             15.050
 Vibration     1          0.627              1.875              2.393
 Vibration     2          0.680              1.710              1.533
 Vibration     3          0.691              1.679              1.432
 Vibration     4          0.720              1.596              1.213
 Vibration     5          0.725              1.580              1.177
 Vibration     6          0.755              1.500              1.016
 Vibration     7          0.833              1.302              0.719
 Vibration     8          0.874              1.209              0.613
 Vibration     9          0.909              1.132              0.537
 Vibration    10          0.969              1.011              0.433

 Normal termination of Gaussian 16 at Mon Mar  6 10:43:19 2023.
