 Gaussian 16, Revision C.01,
 Gaussian 16:  ES64L-G16RevC.01  3-Jul-2019

 ----------------------------------------------------------------------
 #p pop=(regular,nbo,savenbos) freq=noraman def2svp empiricaldispersion
 =gd3bj output=wfx pbe1pbe
 ----------------------------------------------------------------------

 -----------------------------------------
 AGOROE_Complex_18_Ligand_1_OO_Cu_oriented
 -----------------------------------------
 Symbolic Z-matrix:
 Charge = -2 Multiplicity = 1

                         Standard orientation:
 ---------------------------------------------------------------------
 Center     Atomic      Atomic             Coordinates (Angstroms)
 Number     Number       Type             X           Y           Z
 ---------------------------------------------------------------------
      1          8           0        3.142232    0.147105   -0.482752
      2          8           0        1.713688   -1.462178   -0.949421
      3          8           0        1.543701    1.421191    1.123463
      4          6           0        2.029822   -0.456824   -0.323408
      5          6           0        1.113272    0.120087    0.761876
      6          1           0        1.237709   -0.562697    1.543720
      7          6           0       -0.342872    0.088346    0.337567
      8          6           0       -1.226691   -0.740000    0.994133
      9          1           0       -0.879662   -1.311585    1.707567
     10          6           0       -2.567626   -0.790790    0.619029
     11          1           0       -3.129270   -1.328298    1.205109
     12          6           0       -3.016267    0.006775   -0.395981
     13          1           0       -3.941253   -0.071354   -0.638834
     14          6           0       -0.814952    0.870067   -0.691754
     15          6           0       -2.143729    0.835976   -1.045621
     16          1           0       -2.453305    1.360400   -1.742204
     17          1           0       -0.216922    1.462767   -1.140728
 ---------------------------------------------------------------------

 SCF Done:  E(RPBE1PBE) =  -532.926106173     A.U. after   22 cycles

 The electronic state is 1-A.
 Alpha  occ. eigenvalues --  -18.76459 -18.74777 -18.71443  -9.95454  -9.94924
 Alpha  occ. eigenvalues --   -9.94556  -9.93092  -9.92916  -9.92620  -9.91365
 Alpha  occ. eigenvalues --   -9.88464  -0.65837  -0.60814  -0.55195  -0.52713
 Alpha  occ. eigenvalues --   -0.50229  -0.48172  -0.36703  -0.36317  -0.31134
 Alpha  occ. eigenvalues --   -0.26911  -0.21924  -0.19443  -0.17895  -0.15448
 Alpha  occ. eigenvalues --   -0.12105  -0.10965  -0.08797  -0.07307  -0.06369
 Alpha  occ. eigenvalues --   -0.03319  -0.00562   0.00579   0.01241   0.04305
 Alpha  occ. eigenvalues --    0.11558   0.12639   0.15195   0.18049   0.19628
 Alpha virt. eigenvalues --    0.27324   0.28734   0.31885   0.35030   0.37189
 Alpha virt. eigenvalues --    0.39707   0.43692   0.44598   0.45904   0.47539
 Alpha virt. eigenvalues --    0.55870   0.56773   0.58671   0.59891   0.61410

 Mulliken charges:
               1
     1  O   -0.485434
     2  O   -0.453372
     3  O   -0.697110
     4  C   -0.002796
     5  C    0.296190
     6  H   -0.158284
     7  C    0.008470
     8  C    0.000521
     9  H   -0.138456
    10  C    0.036888
    11  H   -0.137505
    12  C    0.027789
    13  H   -0.153263
    14  C    0.093156
    15  C    0.069292
    16  H   -0.170469
    17  H   -0.135618
 Sum of Mulliken charges =  -2.00000

 Dipole moment (field-independent basis, Debye):
    X=            -12.1664    Y=             -1.3217    Z=             -0.0908  Tot=             12.2383
 Quadrupole moment (field-independent basis, Debye-Ang):
   XX=           -119.7347   YY=            -82.5768   ZZ=            -75.9397
   XY=             -3.0445   XZ=              2.6830   YZ=            -11.5957

  Exact polarizability:     153.257      13.817      76.603      12.088     -13.177      76.637
 Approx polarizability:     262.366      50.081     136.386      31.991     -17.330     123.759

 Summary of Natural Population Analysis:

                                       Natural Population
                Natural  -----------------------------------------------
    Atom  No    Charge         Core      Valence    Rydberg      Total
 -----------------------------------------------------------------------
      O    1   -0.80905      1.99976     6.80029    0.00900     8.80905
      O    2   -0.83474      1.99973     6.82507    0.00994     8.83474
      O    3   -0.92312      1.99987     6.91574    0.00751     8.92312
      C    4    0.77588      1.99940     3.14784    0.07688     5.22412
      C    5   -0.00103      1.99889     3.96168    0.04046     6.00103
      H    6    0.11185      0.00000     0.87719    0.01096     0.88815
      C    7    0.01662      1.99895     3.95624    0.02819     5.98338
      C    8   -0.22378      1.99896     4.20658    0.01825     6.22378
      H    9    0.16751      0.00000     0.82519    0.00730     0.83249
      C   10   -0.22933      1.99909     4.21486    0.01538     6.22933
      H   11    0.15395      0.00000     0.84158    0.00447     0.84605
      C   12   -0.28779      1.99909     4.27186    0.01683     6.28779
      H   13    0.14969      0.00000     0.84634    0.00396     0.85031
      C   14   -0.15987      1.99897     4.14093    0.01997     6.15987
      C   15   -0.22393      1.99908     4.20836    0.01650     6.22393
      H   16    0.14159      0.00000     0.85467    0.00375     0.85841
      H   17    0.17558      0.00000     0.81316    0.01126     0.82442
 =======================================================================
   * Total *   -2.00000     21.99180    57.70760    0.30060    80.00000

 ******   10 imaginary frequencies (negative Signs) ******

                      1                      2                      3
                      A                      A                      A
 Frequencies --  -1430.5290             -1127.4493             -1080.7816
 Red. masses --      1.0838                 1.0662                 1.0325
 Frc consts  --      1.3068                 0.7985                 0.7106
 IR Inten    --     33.6899                20.4914                 9.1905

                      4                      5                      6
                      A                      A                      A
 Frequencies --   -956.8710              -945.7720              -801.5938
 Red. masses --      1.0736                 1.0887                 1.0291
 Frc consts  --      0.5791                 0.5738                 0.3896
 IR Inten    --      6.1207                 2.7341                 4.5503

                      7                      8                      9
                      A                      A                      A
 Frequencies --   -560.8971              -466.2000              -166.0877
 Red. masses --      1.2347                 1.2859                 7.1879
 Frc consts  --      0.2289                 0.1647                 0.1168
 IR Inten    --     10.4879                 1.5341                 7.8457

                     10                     11                     12
                      A                      A                      A
 Frequencies --    -94.5189                82.2043               114.9088
 Red. masses --      1.8963                 6.9446                 4.4941
 Frc consts  --      0.0100                 0.0276                 0.0350
 IR Inten    --      2.9834                 0.9636                 0.4513

                     13                     14                     15
                      A                      A                      A
 Frequencies --    240.9385               263.2814               330.3377
 Red. masses --      1.5994                 6.9969                 5.8122
 Frc consts  --      0.0547                 0.2858                 0.3737
 IR Inten    --      9.9192                 8.2726                52.0879

                     16                     17                     18
                      A                      A                      A
 Frequencies --    356.8783               471.7561               524.5868
 Red. masses --      8.1754                 7.2703                 7.2109
 Frc consts  --      0.6135                 0.9533                 1.1692
 IR Inten    --      4.2408                 6.5321                 2.7848

                     19                     20                     21
                      A                      A                      A
 Frequencies --    525.8105               601.1597               684.4328
 Red. masses --      5.0060                 9.5066                 2.2074
 Frc consts  --      0.8154                 2.0242                 0.6092
 IR Inten    --      9.3526                 9.8977                 2.7078

                     22                     23                     24
                      A                      A                      A
 Frequencies --    749.3320               761.8236               791.1505
 Red. masses --      3.6421                 5.0414                 3.0108
 Frc consts  --      1.2049                 1.7239                 1.1103
 IR Inten    --     44.9721                 6.0139                10.2700

                     25                     26                     27
                      A                      A                      A
 Frequencies --    840.5973               899.4138               923.4046
 Red. masses --      4.6070                 2.8037                 3.7863
 Frc consts  --      1.9180                 1.3363                 1.9022
 IR Inten    --     24.0332                 6.9370                50.0498

                     28                     29                     30
                      A                      A                      A
 Frequencies --    977.5018               999.9288              1039.2418
 Red. masses --      2.7181                 2.8276                 3.3945
 Frc consts  --      1.5302                 1.6657                 2.1600
 IR Inten    --      8.1566                15.1839                 0.9110

                     31                     32                     33
                      A                      A                      A
 Frequencies --   1070.7470              1205.0084              1400.5056
 Red. masses --      3.6127                 8.0726                 7.4502
 Frc consts  --      2.4403                 6.9063                 8.6098
 IR Inten    --     34.0217                30.6782                 1.5082

                     34                     35                     36
                      A                      A                      A
 Frequencies --   1443.5658              1463.2294              1535.5436
 Red. masses --     11.7757                 8.5170                 9.1500
 Frc consts  --     14.4580                10.7439                12.7114
 IR Inten    --    296.4458                14.7701                12.1779

                     37                     38                     39
                      A                      A                      A
 Frequencies --   1643.9339              1728.2986              1819.5226
 Red. masses --     10.6038                10.0056                13.0484
 Frc consts  --     16.8842                17.6088                25.4521
 IR Inten    --     92.3317                14.5689               319.2118

                     40                     41                     42
                      A                      A                      A
 Frequencies --   3523.7658              4405.8246              4451.7815
 Red. masses --      1.0830                 1.0885                 1.0894
 Frc consts  --      7.9230                12.4487                12.7208
 IR Inten    --    332.6509                12.5632                53.8073

                     43                     44                     45
                      A                      A                      A
 Frequencies --   4622.8386              4713.6448              5080.5708
 Red. masses --      1.0890                 1.0893                 1.0887
 Frc consts  --     13.7114                14.2594                16.5570
 IR Inten    --     28.8265                 2.3596                25.9895

 - Thermochemistry -
 -------------------
 Temperature   298.150 Kelvin.  Pressure   1.00000 Atm.
 Atom     1 has atomic number  8 and mass  15.99491

 Molecular mass:   150.03169 amu.
 Principal axes and moments of inertia in atomic units:
                           1         2         3
     Eigenvalues --   734.560142513.573322589.24525
           X            0.99997   0.00554   0.00503
           Y           -0.00263   0.88949  -0.45696
           Z           -0.00700   0.45693   0.88947
 This molecule is an asymmetric top.
 Rotational symmetry number  1.
 Warning -- assumption of classical behavior for rotation
           may cause significant error
 Rotational temperatures (Kelvin)      0.11791     0.03446     0.03345
 Rotational constants (GHZ):           2.45690     0.71800     0.69701
   10 imaginary frequencies ignored.
 Zero-point vibrational energy     312748.5 (Joules/Mol)
                                   74.74869 (Kcal/Mol)
 Warning -- explicit consideration of  10 degrees of freedom as
           vibrations may cause significant error
 Vibrational temperatures:    118.27   165.33   346.66   378.80   475.28
          (Kelvin)            513.47   678.75   754.76   756.52   864.93
                              984.75  1078.12  1096.09  1138.29  1209.43
                             1294.06  1328.57  1406.41  1438.67  1495.24
                             1540.57  1733.74  2015.02  2076.97  2105.26
                             2209.30  2365.25  2486.64  2617.89  5069.91
                             6339.00  6405.12  6651.23  6781.88  7309.81

 Zero-point correction=                           0.119120 (Hartree/Particle)
 Thermal correction to Energy=                    0.126688
 Thermal correction to Enthalpy=                  0.127632
 Thermal correction to Gibbs Free Energy=         0.085803
 Sum of electronic and zero-point Energies=           -532.806987
 Sum of electronic and thermal Energies=              -532.799418
 Sum of electronic and thermal Enthalpies=            -532.798474
 Sum of electronic and thermal Free Energies=         -532.840303

                     E (Thermal)             CV                S
                      KCal/Mol        Cal/Mol-Kelvin    Cal/Mol-Kelvin
 Total                   79.498             27.892             88.038
 Electronic               0.000              0.000              0.000
 Translational            0.889              2.981             40.927
 Rotational               0.889              2.981             29.948
 Vibrational             77.721             21.930             17.162
 Vibration     1          0.600              1.961              3.838
 Vibration     2          0.608              1.937              3.184
 Vibration     3          0.658              1.778              1.796
 Vibration     4          0.670              1.740              1.640
 Vibration     5          0.713              1.615              1.258
 Vibration     6          0.732              1.561              1.136
 Vibration     7          0.829              1.313              0.733
 Vibration     8          0.880              1.196              0.599
 Vibration     9          0.881              1.193              0.597
 Vibration    10          0.959              1.029              0.448

 Normal termination of Gaussian 16 at Mon Mar  6 10:30:59 2023.
