 Gaussian 16, Revision C.01,
 Gaussian 16:  ES64L-G16RevC.01  3-Jul-2019

 ----------------------------------------------------------------------
 #p pop=(regular,nbo,savenbos) freq=noraman def2svp empiricaldispersion
 =gd3bj output=wfx pbe1pbe
 ----------------------------------------------------------------------

 ----------------------------------------
 AKEXUJ_Complex_0_Ligand_2_NN_Cu_oriented
 ----------------------------------------
 Symbolic Z-matrix:
 Charge = -1 Multiplicity = 1

                         Standard orientation:
 ---------------------------------------------------------------------
 Center     Atomic      Atomic             Coordinates (Angstroms)
 Number     Number       Type             X           Y           Z
 ---------------------------------------------------------------------
      1         16           0        0.827945    1.734521    0.329801
      2          8           0        0.770038    1.856834    1.767075
      3          8           0        1.240938    2.922904   -0.381464
      4          7           0       -3.017958    0.782290   -1.125805
      5          7           0       -0.540431    1.242564   -0.312499
      6          6           0       -4.233296    0.568254   -1.627995
      7          1           0       -4.552223    1.132434   -2.308030
      8          6           0       -5.046663   -0.471370   -1.171275
      9          1           0       -5.890048   -0.613251   -1.560301
     10          6           0       -4.620164   -1.275615   -0.167299
     11          1           0       -5.179831   -1.953317    0.163438
     12          6           0       -3.333693   -1.090193    0.380711
     13          6           0       -2.818793   -1.896625    1.405602
     14          1           0       -3.341727   -2.578070    1.786729
     15          6           0       -1.555606   -1.677816    1.837308
     16          1           0       -1.207372   -2.228689    2.515699
     17          6           0       -0.743733   -0.658554    1.313057
     18          1           0        0.126237   -0.538035    1.645463
     19          6           0       -1.217908    0.175001    0.304042
     20          6           0       -2.538732   -0.051667   -0.156505
     21          6           0        2.061937    0.512323   -0.010534
     22          6           0        2.077672   -0.162721   -1.203430
     23          1           0        1.383522   -0.036162   -1.822882
     24          6           0        3.116585   -1.031754   -1.495490
     25          1           0        3.121924   -1.477325   -2.322989
     26          6           0        4.129274   -1.255219   -0.613668
     27          6           0        5.288612   -2.184143   -0.960909
     28          1           0        4.940234   -3.050251   -1.224163
     29          1           0        5.862803   -2.288872   -0.186239
     30          1           0        5.798218   -1.805244   -1.693799
     31          6           0        4.120682   -0.583961    0.584179
     32          1           0        4.816053   -0.716731    1.202012
     33          6           0        3.083254    0.292120    0.882711
     34          1           0        3.079427    0.740933    1.708469
 ---------------------------------------------------------------------

 SCF Done:  E(RPBE1PBE) =  -1273.54791001     A.U. after   16 cycles

 The electronic state is 1-A.
 Alpha  occ. eigenvalues --  -89.04721 -19.01636 -19.01039 -14.25497 -14.19642
 Alpha  occ. eigenvalues --  -10.13758 -10.13022 -10.12956 -10.12939 -10.12115
 Alpha  occ. eigenvalues --  -10.11834 -10.11706 -10.11524 -10.11364 -10.11261
 Alpha  occ. eigenvalues --  -10.11246 -10.11173 -10.10886 -10.09483 -10.08331
 Alpha  occ. eigenvalues --  -10.07406  -8.01544  -5.95739  -5.95660  -5.95607
 Alpha  occ. eigenvalues --   -0.96831  -0.84039  -0.83417  -0.78826  -0.76209
 Alpha  occ. eigenvalues --   -0.73378  -0.71212  -0.70042  -0.67400  -0.65242
 Alpha  occ. eigenvalues --   -0.63844  -0.61931  -0.55575  -0.54608  -0.53691
 Alpha  occ. eigenvalues --   -0.52791  -0.50587  -0.47750  -0.44661  -0.43582
 Alpha  occ. eigenvalues --   -0.41580  -0.40070  -0.39425  -0.38467  -0.37600
 Alpha  occ. eigenvalues --   -0.36156  -0.35761  -0.34762  -0.33712  -0.33253
 Alpha  occ. eigenvalues --   -0.32323  -0.31804  -0.31052  -0.30588  -0.29487
 Alpha  occ. eigenvalues --   -0.27776  -0.27497  -0.26920  -0.26272  -0.24533
 Alpha  occ. eigenvalues --   -0.23694  -0.20952  -0.18988  -0.17869  -0.17161
 Alpha  occ. eigenvalues --   -0.16217  -0.14932  -0.14118  -0.13981  -0.13426
 Alpha  occ. eigenvalues --   -0.12796  -0.09848  -0.06124
 Alpha virt. eigenvalues --    0.07826   0.09928   0.10257   0.11370   0.16239
 Alpha virt. eigenvalues --    0.17036   0.19764   0.21104   0.21900   0.22147
 Alpha virt. eigenvalues --    0.22247   0.23419   0.23630   0.25780   0.26118

 Mulliken charges:
               1
     1  S    0.866878
     2  O   -0.516867
     3  O   -0.517409
     4  N   -0.137219
     5  N   -0.432044
     6  C    0.156836
     7  H   -0.094024
     8  C    0.022710
     9  H   -0.112524
    10  C    0.121926
    11  H   -0.128564
    12  C    0.037355
    13  C    0.016949
    14  H   -0.151216
    15  C    0.128123
    16  H   -0.116332
    17  C    0.008318
    18  H   -0.147897
    19  C    0.159311
    20  C   -0.034317
    21  C   -0.103661
    22  C    0.145339
    23  H   -0.100048
    24  C    0.047554
    25  H   -0.126360
    26  C   -0.118671
    27  C    0.251193
    28  H   -0.014958
    29  H   -0.040081
    30  H   -0.008153
    31  C    0.046338
    32  H   -0.127302
    33  C    0.127103
    34  H   -0.108285
 Sum of Mulliken charges =  -1.00000

 Dipole moment (field-independent basis, Debye):
    X=              1.6577    Y=             -8.1035    Z=             -0.9530  Tot=              8.3261
 Quadrupole moment (field-independent basis, Debye-Ang):
   XX=           -138.4660   YY=           -152.7813   ZZ=           -134.9749
   XY=             -6.2994   XZ=              0.4685   YZ=             -0.1030

  Exact polarizability:     278.588       1.162     166.813      24.145     -17.208     162.229
 Approx polarizability:     369.308       8.655     289.641      55.408     -48.221     294.707

 Summary of Natural Population Analysis:

                                       Natural Population
                Natural  -----------------------------------------------
    Atom  No    Charge         Core      Valence    Rydberg      Total
 -----------------------------------------------------------------------
      S    1    2.30707      9.99794     3.45697    0.23801    13.69293
      O    2   -1.00616      1.99977     6.99816    0.00824     9.00616
      O    3   -0.96902      1.99977     6.96067    0.00858     8.96902
      N    4   -0.43034      1.99933     5.41389    0.01712     7.43034
      N    5   -0.93295      1.99932     5.91817    0.01547     7.93295
      C    6    0.07501      1.99914     3.90381    0.02204     5.92499
      H    7    0.14274      0.00000     0.85412    0.00313     0.85726
      C    8   -0.23918      1.99910     4.22629    0.01378     6.23918
      H    9    0.16390      0.00000     0.83247    0.00363     0.83610
      C   10   -0.14774      1.99905     4.13282    0.01587     6.14774
      H   11    0.16564      0.00000     0.83099    0.00337     0.83436
      C   12   -0.07774      1.99897     4.06308    0.01569     6.07774
      C   13   -0.25580      1.99904     4.23942    0.01734     6.25580
      H   14    0.16530      0.00000     0.83116    0.00354     0.83470
      C   15   -0.15112      1.99911     4.13751    0.01450     6.15112
      H   16    0.16311      0.00000     0.83356    0.00333     0.83689
      C   17   -0.25792      1.99899     4.24241    0.01653     6.25792
      H   18    0.18466      0.00000     0.81042    0.00492     0.81534
      C   19    0.20090      1.99891     3.77325    0.02694     5.79910
      C   20    0.16448      1.99879     3.81140    0.02533     5.83552
      C   21   -0.29136      1.99881     4.26187    0.03069     6.29136
      C   22   -0.13622      1.99897     4.11969    0.01756     6.13622
      H   23    0.19231      0.00000     0.80328    0.00440     0.80769
      C   24   -0.19949      1.99895     4.18504    0.01550     6.19949
      H   25    0.16930      0.00000     0.82741    0.00329     0.83070
      C   26   -0.02082      1.99898     4.00685    0.01499     6.02082
      C   27   -0.56131      1.99916     4.55312    0.00903     6.56131
      H   28    0.19246      0.00000     0.80482    0.00272     0.80754
      H   29    0.18718      0.00000     0.81019    0.00263     0.81282
      H   30    0.19349      0.00000     0.80379    0.00272     0.80651
      C   31   -0.19873      1.99897     4.18465    0.01511     6.19873
      H   32    0.16814      0.00000     0.82871    0.00316     0.83186
      C   33   -0.14940      1.99898     4.13209    0.01833     6.14940
      H   34    0.18962      0.00000     0.80579    0.00459     0.81038
 =======================================================================
   * Total *   -1.00000     49.98003   105.39788    0.62209   156.00000

 ******   23 imaginary frequencies (negative Signs) ******

                      1                      2                      3
                      A                      A                      A
 Frequencies --  -1362.9561             -1350.3620             -1334.0314
 Red. masses --      1.0774                 1.0738                 1.0252
 Frc consts  --      1.1792                 1.1536                 1.0750
 IR Inten    --      3.3982                79.1932                 9.4929

                      4                      5                      6
                      A                      A                      A
 Frequencies --  -1322.8260             -1276.7763             -1274.6193
 Red. masses --      1.0519                 1.0446                 1.0401
 Frc consts  --      1.0845                 1.0033                 0.9956
 IR Inten    --     35.1092                 0.3591                 0.8149

                      7                      8                      9
                      A                      A                      A
 Frequencies --  -1250.0433             -1142.1288             -1133.5888
 Red. masses --      1.0369                 1.0162                 1.0294
 Frc consts  --      0.9547                 0.7810                 0.7794
 IR Inten    --      0.0088                 0.0843                 0.0200

                     10                     11                     12
                      A                      A                      A
 Frequencies --  -1123.2735             -1117.7702              -936.1011
 Red. masses --      1.0390                 1.0297                 1.0706
 Frc consts  --      0.7724                 0.7580                 0.5528
 IR Inten    --      0.2436                 0.6301                 5.8506

                     13                     14                     15
                      A                      A                      A
 Frequencies --   -900.3592              -820.5008              -788.3796
 Red. masses --      1.0539                 1.1150                 1.1030
 Frc consts  --      0.5033                 0.4423                 0.4039
 IR Inten    --      3.9218                 0.5455                 0.4873

                     16                     17                     18
                      A                      A                      A
 Frequencies --   -776.0455              -750.7954              -701.3526
 Red. masses --      1.1680                 1.0436                 1.1425
 Frc consts  --      0.4144                 0.3466                 0.3311
 IR Inten    --     10.7010                16.2370                 0.7502

                     19                     20                     21
                      A                      A                      A
 Frequencies --   -690.8817              -680.3819              -585.3535
 Red. masses --      1.1608                 1.1587                 1.1779
 Frc consts  --      0.3265                 0.3160                 0.2378
 IR Inten    --      0.5220                14.9687                 2.3645

                     22                     23                     24
                      A                      A                      A
 Frequencies --   -572.5902              -544.1183                65.2366
 Red. masses --      1.0930                 1.0365                 8.5006
 Frc consts  --      0.2111                 0.1808                 0.0213
 IR Inten    --      9.4722                18.6117                 1.3650

                     25                     26                     27
                      A                      A                      A
 Frequencies --     70.6064                97.9023               154.2701
 Red. masses --     10.5385                 8.1636                 9.5866
 Frc consts  --      0.0310                 0.0461                 0.1344
 IR Inten    --      1.7301                 0.3550                 0.1338

                     28                     29                     30
                      A                      A                      A
 Frequencies --    161.0615               197.5209               250.7267
 Red. masses --      9.2222                11.2397                 9.2759
 Frc consts  --      0.1410                 0.2584                 0.3436
 IR Inten    --      0.2785                 0.8511                 1.0755

                     31                     32                     33
                      A                      A                      A
 Frequencies --    258.6032               273.0631               298.7547
 Red. masses --      9.7625                 8.6232                 9.4706
 Frc consts  --      0.3847                 0.3788                 0.4980
 IR Inten    --      0.9395                 1.1916                 3.0993

                     34                     35                     36
                      A                      A                      A
 Frequencies --    317.1283               360.9382               392.6266
 Red. masses --      9.4576                 9.7483                 7.4963
 Frc consts  --      0.5604                 0.7482                 0.6809
 IR Inten    --      0.9378                 0.6786                 4.3197

                     37                     38                     39
                      A                      A                      A
 Frequencies --    422.4742               470.6406               528.9831
 Red. masses --      9.5389                 8.9712                 9.5211
 Frc consts  --      1.0031                 1.1708                 1.5697
 IR Inten    --      2.4175                10.3253                35.2426

                     40                     41                     42
                      A                      A                      A
 Frequencies --    538.1468               546.5688               551.1232
 Red. masses --     10.7851                 4.6703                 1.4136
 Frc consts  --      1.8403                 0.8220                 0.2530
 IR Inten    --      2.0768                65.5400                21.7581

                     43                     44                     45
                      A                      A                      A
 Frequencies --    570.5572               589.1561               601.1632
 Red. masses --      6.0780                 9.8986                 9.7583
 Frc consts  --      1.1658                 2.0243                 2.0778
 IR Inten    --     12.6696                46.5420               138.4928

                     46                     47                     48
                      A                      A                      A
 Frequencies --    645.3956               654.7327               668.2646
 Red. masses --      7.1949                 4.4159                 7.3988
 Frc consts  --      1.7657                 1.1153                 1.9467
 IR Inten    --      2.1278                 1.2448                13.9606

                     49                     50                     51
                      A                      A                      A
 Frequencies --    674.6646               695.7681               698.1184
 Red. masses --      7.9133                 7.5164                 6.4099
 Frc consts  --      2.1222                 2.1438                 1.8406
 IR Inten    --      4.5023                46.4155                57.0443

                     52                     53                     54
                      A                      A                      A
 Frequencies --    747.5320               755.5937               763.7382
 Red. masses --      6.9980                 8.2061                 4.2412
 Frc consts  --      2.3040                 2.7604                 1.4576
 IR Inten    --      6.2709                26.4626                 3.4417

                     55                     56                     57
                      A                      A                      A
 Frequencies --    796.1830               815.6884               880.4398
 Red. masses --      7.3139                 7.0120                10.8769
 Frc consts  --      2.7316                 2.7488                 4.9677
 IR Inten    --     14.4745                10.8180                 1.7582

                     58                     59                     60
                      A                      A                      A
 Frequencies --    906.1489               908.5910               924.4348
 Red. masses --      5.6632                 5.4548                 6.3691
 Frc consts  --      2.7397                 2.6532                 3.2069
 IR Inten    --     21.1066                24.1353                77.2615

                     61                     62                     63
                      A                      A                      A
 Frequencies --    989.1162              1046.7804              1068.1984
 Red. masses --      8.8734                 1.0493                 1.0841
 Frc consts  --      5.1149                 0.6774                 0.7288
 IR Inten    --    127.9813                10.7735                 8.1960

                     64                     65                     66
                      A                      A                      A
 Frequencies --   1111.9912              1164.6220              1217.1015
 Red. masses --      7.4162                 8.4230                 9.2022
 Frc consts  --      5.4030                 6.7311                 8.0315
 IR Inten    --      4.9721               236.5196               290.7216

                     67                     68                     69
                      A                      A                      A
 Frequencies --   1228.8724              1251.4430              1325.9282
 Red. masses --      8.4805                15.1937                 8.4007
 Frc consts  --      7.5455                14.0196                 8.7018
 IR Inten    --    133.7053               393.4894                 6.9240

                     70                     71                     72
                      A                      A                      A
 Frequencies --   1342.7880              1364.7324              1374.4882
 Red. masses --      9.5342                 9.7669                 8.5832
 Frc consts  --     10.1286                10.7177                 9.5539
 IR Inten    --     69.6460                12.9196                 3.9502

                     73                     74                     75
                      A                      A                      A
 Frequencies --   1412.7798              1437.1043              1497.2099
 Red. masses --     20.0514                10.3510                 9.8684
 Frc consts  --     23.5801                12.5953                13.0336
 IR Inten    --    175.7575               448.2928                 2.3782

                     76                     77                     78
                      A                      A                      A
 Frequencies --   1518.1405              1530.2458              1549.6481
 Red. masses --      8.5072                 9.7726                 9.8905
 Frc consts  --     11.5521                13.4829                13.9937
 IR Inten    --      4.4636                30.2859                81.6187

                     79                     80                     81
                      A                      A                      A
 Frequencies --   1613.1879              1681.5314              1689.6409
 Red. masses --     10.7788                11.3321                10.6401
 Frc consts  --     16.5269                18.8786                17.8971
 IR Inten    --     50.7418                 7.1549                15.0327

                     82                     83                     84
                      A                      A                      A
 Frequencies --   1705.0300              1761.2777              4352.7112
 Red. masses --     10.6445                 9.8920                 1.0320
 Frc consts  --     18.2321                18.0796                11.5200
 IR Inten    --     21.7952                 3.0930                17.1778

                     85                     86                     87
                      A                      A                      A
 Frequencies --   4552.1756              4554.0580              4879.6369
 Red. masses --      1.1066                 1.1070                 1.0869
 Frc consts  --     13.5107                13.5269                15.2481
 IR Inten    --      2.5411                 3.1781                 3.8267

                     88                     89                     90
                      A                      A                      A
 Frequencies --   4892.0792              4892.7360              4896.3492
 Red. masses --      1.0886                 1.0868                 1.0880
 Frc consts  --     15.3506                15.3290                15.3683
 IR Inten    --      3.6318                 2.0652                 3.5395

                     91                     92                     93
                      A                      A                      A
 Frequencies --   4897.2966              4905.9190              4908.0831
 Red. masses --      1.0910                 1.0892                 1.0907
 Frc consts  --     15.4164                15.4454                15.4802
 IR Inten    --      8.8754                 7.3855                 4.0646

                     94                     95                     96
                      A                      A                      A
 Frequencies --   4912.1014              4914.9984              4919.2812
 Red. masses --      1.0921                 1.0894                 1.0903
 Frc consts  --     15.5262                15.5060                15.5450
 IR Inten    --     11.0582                 0.0962                 3.5190

 - Thermochemistry -
 -------------------
 Temperature   298.150 Kelvin.  Pressure   1.00000 Atm.
 Atom     1 has atomic number 16 and mass  31.97207

 Molecular mass:   297.06977 amu.
 Principal axes and moments of inertia in atomic units:
                           1         2         3
     Eigenvalues --  3209.51083********************
           X            0.99992  -0.01224  -0.00237
           Y            0.01222   0.99990  -0.00686
           Z            0.00245   0.00683   0.99997
 This molecule is an asymmetric top.
 Rotational symmetry number  1.
 Warning -- assumption of classical behavior for rotation
           may cause significant error
 Rotational temperatures (Kelvin)      0.02699     0.00820     0.00755
 Rotational constants (GHZ):           0.56231     0.17088     0.15738
   23 imaginary frequencies ignored.
 Zero-point vibrational energy     679549.7 (Joules/Mol)
                                  162.41626 (Kcal/Mol)
 Warning -- explicit consideration of  22 degrees of freedom as
           vibrations may cause significant error
 Vibrational temperatures:     93.86   101.59   140.86   221.96   231.73
          (Kelvin)            284.19   360.74   372.07   392.88   429.84
                              456.28   519.31   564.90   607.85   677.15
                              761.09   774.27   786.39   792.94   820.90
                              847.66   864.94   928.58   942.01   961.48
                              970.69  1001.06  1004.44  1075.53  1087.13
                             1098.85  1145.53  1173.59  1266.76  1303.75
                             1307.26  1330.06  1423.12  1506.08  1536.90
                             1599.91  1675.63  1751.14  1768.07  1800.55
                             1907.71  1931.97  1963.55  1977.58  2032.68
                             2067.67  2154.15  2184.27  2201.68  2229.60
                             2321.02  2419.35  2431.02  2453.16  2534.09
                             6262.58  6549.57  6552.27  7020.71  7038.61
                             7039.56  7044.75  7046.12  7058.52  7061.64
                             7067.42  7071.59  7077.75

 Zero-point correction=                           0.258827 (Hartree/Particle)
 Thermal correction to Energy=                    0.272191
 Thermal correction to Enthalpy=                  0.273136
 Thermal correction to Gibbs Free Energy=         0.218006
 Sum of electronic and zero-point Energies=          -1273.289083
 Sum of electronic and thermal Energies=             -1273.275719
 Sum of electronic and thermal Enthalpies=           -1273.274774
 Sum of electronic and thermal Free Energies=        -1273.329904

                     E (Thermal)             CV                S
                      KCal/Mol        Cal/Mol-Kelvin    Cal/Mol-Kelvin
 Total                  170.803             53.597            116.031
 Electronic               0.000              0.000              0.000
 Translational            0.889              2.981             42.963
 Rotational               0.889              2.981             34.318
 Vibrational            169.025             47.636             38.749
 Vibration     1          0.597              1.971              4.292
 Vibration     2          0.598              1.968              4.136
 Vibration     3          0.603              1.951              3.496
 Vibration     4          0.620              1.898              2.619
 Vibration     5          0.622              1.890              2.537
 Vibration     6          0.637              1.843              2.156
 Vibration     7          0.663              1.762              1.725
 Vibration     8          0.667              1.748              1.671
 Vibration     9          0.676              1.723              1.577
 Vibration    10          0.692              1.676              1.424
 Vibration    11          0.704              1.641              1.325
 Vibration    12          0.735              1.553              1.118
 Vibration    13          0.760              1.486              0.990
 Vibration    14          0.785              1.421              0.884
 Vibration    15          0.828              1.315              0.736
 Vibration    16          0.884              1.186              0.589
 Vibration    17          0.893              1.166              0.569
 Vibration    18          0.902              1.147              0.551
 Vibration    19          0.906              1.137              0.542
 Vibration    20          0.927              1.095              0.503
 Vibration    21          0.946              1.055              0.469
 Vibration    22          0.959              1.029              0.448

 Normal termination of Gaussian 16 at Mon Mar  6 11:19:05 2023.
