 Gaussian 16, Revision C.01,
 Gaussian 16:  ES64L-G16RevC.01  3-Jul-2019

 ----------------------------------------------------------------------
 #p pop=(regular,nbo,savenbos) freq=noraman def2svp empiricaldispersion
 =gd3bj output=wfx pbe1pbe
 ----------------------------------------------------------------------

 ----------------------------------------
 ALIPER_Complex_2_Ligand_0_NN_Cu_oriented
 ----------------------------------------
 Symbolic Z-matrix:
 Charge =  0 Multiplicity = 1

                         Standard orientation:
 ---------------------------------------------------------------------
 Center     Atomic      Atomic             Coordinates (Angstroms)
 Number     Number       Type             X           Y           Z
 ---------------------------------------------------------------------
      1          7           0       -0.621044   -0.390391   -0.162741
      2          6           0       -2.022366    0.005676    0.045328
      3          6           0       -1.307414   -0.619705    1.154559
      4          1           0       -1.046431   -0.047329    1.917220
      5          6           0       -2.373043    1.484766    0.135335
      6          1           0       -3.301847    1.581684    0.433495
      7          1           0       -2.269583    1.899034   -0.746212
      8          1           0       -1.776702    1.923310    0.775259
      9          6           0       -3.016163   -0.800014   -0.750169
     10          1           0       -2.761606   -1.746123   -0.729390
     11          1           0       -3.026143   -0.484089   -1.677369
     12          1           0       -3.909565   -0.694939   -0.359428
     13          6           0        0.415549    0.655627   -0.182654
     14          1           0        0.276130    1.277615    0.574286
     15          1           0        0.347008    1.174170   -1.022721
     16          7           0        1.914602   -0.954121   -1.194920
     17          1           0        2.645523   -1.494001   -1.050087
     18          1           0        2.038479   -0.508561   -1.989356
     19          6           0        1.784633    0.030075   -0.078848
     20          6           0        2.855951    1.126764   -0.187434
     21          1           0        3.745956    0.715650   -0.180423
     22          1           0        2.773610    1.741011    0.572572
     23          1           0        2.733628    1.622987   -1.023642
     24          6           0        1.986323   -0.755178    1.218273
     25          1           0        2.887828   -1.138164    1.232210
     26          1           0        1.323588   -1.475579    1.270943
     27          1           0        1.875258   -0.153740    1.984790
     28          1           0       -1.550861   -1.549418    1.395145
 ---------------------------------------------------------------------

 SCF Done:  E(RPBE1PBE) =  -424.162344541     A.U. after   13 cycles

 The electronic state is 1-A.
 Alpha  occ. eigenvalues --  -14.36702 -14.32652 -10.25131 -10.25072 -10.22158
 Alpha  occ. eigenvalues --  -10.22092 -10.18843 -10.18294 -10.17815 -10.17673
 Alpha  occ. eigenvalues --   -0.96957  -0.90870  -0.80421  -0.77653  -0.74297
 Alpha  occ. eigenvalues --   -0.72824  -0.72468  -0.63970  -0.57705  -0.55554
 Alpha  occ. eigenvalues --   -0.51688  -0.49952  -0.49601  -0.48191  -0.46732
 Alpha  occ. eigenvalues --   -0.45747  -0.43692  -0.43279  -0.41925  -0.41656
 Alpha  occ. eigenvalues --   -0.40613  -0.40553  -0.37503  -0.36350  -0.35652
 Alpha  occ. eigenvalues --   -0.34403  -0.31094  -0.30245  -0.23435  -0.21591
 Alpha virt. eigenvalues --    0.06959   0.09218   0.10724   0.12040   0.12692
 Alpha virt. eigenvalues --    0.13245   0.13729   0.14426   0.14674   0.15677
 Alpha virt. eigenvalues --    0.16532   0.17269   0.19177   0.19567   0.19745

 Mulliken charges:
               1
     1  N   -0.376989
     2  C   -0.412195
     3  C    0.239639
     4  H   -0.016195
     5  C    0.256695
     6  H   -0.008719
     7  H   -0.011998
     8  H   -0.038947
     9  C    0.278289
    10  H   -0.026022
    11  H   -0.016076
    12  H   -0.020324
    13  C    0.333827
    14  H   -0.047509
    15  H   -0.038433
    16  N   -0.087834
    17  H    0.048701
    18  H    0.045845
    19  C   -0.409272
    20  C    0.225786
    21  H   -0.025503
    22  H   -0.025640
    23  H   -0.024136
    24  C    0.206740
    25  H   -0.024043
    26  H    0.007454
    27  H   -0.026779
    28  H   -0.006364
 Sum of Mulliken charges =  -0.00000

 Dipole moment (field-independent basis, Debye):
    X=              0.4981    Y=              1.6548    Z=              0.6819  Tot=              1.8578
 Quadrupole moment (field-independent basis, Debye-Ang):
   XX=            -57.0770   YY=            -64.2932   ZZ=            -61.6276
   XY=             -1.0552   XZ=             -1.8508   YZ=             -2.0146

  Exact polarizability:     102.075       1.352      82.663       1.489      -2.194      80.925
 Approx polarizability:     118.744       0.159     112.482       0.467      -2.638     115.245

 Summary of Natural Population Analysis:

                                       Natural Population
                Natural  -----------------------------------------------
    Atom  No    Charge         Core      Valence    Rydberg      Total
 -----------------------------------------------------------------------
      N    1   -0.53245      1.99936     5.51352    0.01957     7.53245
      C    2    0.16488      1.99912     3.81586    0.02014     5.83512
      C    3   -0.19893      1.99898     4.18269    0.01726     6.19893
      H    4    0.17215      0.00000     0.82425    0.00359     0.82785
      C    5   -0.58328      1.99915     4.57445    0.00968     6.58328
      H    6    0.20155      0.00000     0.79581    0.00263     0.79845
      H    7    0.19477      0.00000     0.80203    0.00321     0.80523
      H    8    0.19319      0.00000     0.80455    0.00226     0.80681
      C    9   -0.56881      1.99913     4.55795    0.01174     6.56881
      H   10    0.20242      0.00000     0.79474    0.00284     0.79758
      H   11    0.19476      0.00000     0.80211    0.00313     0.80524
      H   12    0.18945      0.00000     0.80764    0.00291     0.81055
      C   13   -0.19059      1.99889     4.16935    0.02234     6.19059
      H   14    0.17015      0.00000     0.82508    0.00477     0.82985
      H   15    0.19168      0.00000     0.80464    0.00368     0.80832
      N   16   -0.82367      1.99941     5.80164    0.02262     7.82367
      H   17    0.32925      0.00000     0.66567    0.00509     0.67075
      H   18    0.32618      0.00000     0.66850    0.00532     0.67382
      C   19    0.17765      1.99914     3.80406    0.01914     5.82235
      C   20   -0.58291      1.99913     4.57165    0.01213     6.58291
      H   21    0.19388      0.00000     0.80263    0.00348     0.80612
      H   22    0.19160      0.00000     0.80502    0.00338     0.80840
      H   23    0.18870      0.00000     0.80824    0.00307     0.81130
      C   24   -0.57607      1.99913     4.56491    0.01202     6.57607
      H   25    0.19053      0.00000     0.80656    0.00291     0.80947
      H   26    0.20842      0.00000     0.78804    0.00354     0.79158
      H   27    0.19091      0.00000     0.80657    0.00252     0.80909
      H   28    0.18458      0.00000     0.81230    0.00313     0.81542
 =======================================================================
   * Total *    0.00000     19.99144    59.78045    0.22810    80.00000

 ******   19 imaginary frequencies (negative Signs) ******

                      1                      2                      3
                      A                      A                      A
 Frequencies --  -1341.2058             -1232.3859             -1227.3168
 Red. masses --      1.0388                 1.0092                 1.0107
 Frc consts  --      1.1010                 0.9031                 0.8970
 IR Inten    --     45.6754                 0.0331                 0.0270

                      4                      5                      6
                      A                      A                      A
 Frequencies --  -1219.0649             -1211.9174             -1109.7009
 Red. masses --      1.0128                 1.0133                 1.1317
 Frc consts  --      0.8868                 0.8768                 0.8211
 IR Inten    --      0.1088                 0.0617               166.3416

                      7                      8                      9
                      A                      A                      A
 Frequencies --   -880.2935              -856.0145              -831.7954
 Red. masses --      1.0544                 1.1182                 1.0810
 Frc consts  --      0.4814                 0.4828                 0.4407
 IR Inten    --      1.7520                 5.3964                 1.8339

                     10                     11                     12
                      A                      A                      A
 Frequencies --   -817.2996              -809.6387              -800.9888
 Red. masses --      1.0558                 1.0790                 1.0691
 Frc consts  --      0.4155                 0.4167                 0.4041
 IR Inten    --      1.7204                 0.4414                 2.6080

                     13                     14                     15
                      A                      A                      A
 Frequencies --   -788.4511              -781.8070              -758.2363
 Red. masses --      1.0694                 1.0508                 1.0752
 Frc consts  --      0.3917                 0.3784                 0.3642
 IR Inten    --      5.7153                 1.5712                 0.4675

                     16                     17                     18
                      A                      A                      A
 Frequencies --   -714.7614              -628.7458              -582.1986
 Red. masses --      1.0981                 1.1616                 1.1957
 Frc consts  --      0.3305                 0.2706                 0.2388
 IR Inten    --      0.5839                 2.9180                 0.5203

                     19                     20                     21
                      A                      A                      A
 Frequencies --   -425.2981               202.8179               264.2658
 Red. masses --      1.1685                 3.0561                 4.2438
 Frc consts  --      0.1245                 0.0741                 0.1746
 IR Inten    --      6.0895                 1.1495                 0.6994

                     22                     23                     24
                      A                      A                      A
 Frequencies --    312.6652               338.2164               413.9857
 Red. masses --      4.5921                 4.2292                 3.2072
 Frc consts  --      0.2645                 0.2850                 0.3239
 IR Inten    --      1.4116                 0.3819                 0.8783

                     25                     26                     27
                      A                      A                      A
 Frequencies --    446.0614               594.9794               605.4961
 Red. masses --      3.5589                 2.2528                 3.3490
 Frc consts  --      0.4172                 0.4699                 0.7234
 IR Inten    --      2.7937                 5.6734                11.1261

                     28                     29                     30
                      A                      A                      A
 Frequencies --    621.1257               679.9871               694.1923
 Red. masses --      3.8730                 3.1437                 3.5378
 Frc consts  --      0.8804                 0.8564                 1.0045
 IR Inten    --      1.4801                 8.0222                 0.3715

                     31                     32                     33
                      A                      A                      A
 Frequencies --    696.4583               704.8323               718.4704
 Red. masses --      1.3432                 1.9515                 1.3998
 Frc consts  --      0.3839                 0.5712                 0.4257
 IR Inten    --     14.9990                12.8739                10.5975

                     34                     35                     36
                      A                      A                      A
 Frequencies --    721.6746               729.2522               752.1848
 Red. masses --      1.2394                 1.6920                 2.7754
 Frc consts  --      0.3803                 0.5302                 0.9252
 IR Inten    --     15.9893                 4.7281                 1.3262

                     37                     38                     39
                      A                      A                      A
 Frequencies --    762.9358               765.7635               774.6145
 Red. masses --      3.5221                 2.8383                 2.6664
 Frc consts  --      1.2079                 0.9806                 0.9426
 IR Inten    --      0.4487                 2.1820                 0.6042

                     40                     41                     42
                      A                      A                      A
 Frequencies --    834.6835               919.0609               955.1541
 Red. masses --      4.3510                 4.1514                 3.5991
 Frc consts  --      1.7860                 2.0660                 1.9346
 IR Inten    --      4.6210                25.8640                39.5432

                     43                     44                     45
                      A                      A                      A
 Frequencies --    987.0355              1074.4129              1086.3482
 Red. masses --      3.3427                 1.3158                 1.1491
 Frc consts  --      1.9187                 0.8949                 0.7990
 IR Inten    --      7.6892                28.9682                30.1430

                     46                     47                     48
                      A                      A                      A
 Frequencies --   1089.4924              1098.2836              1103.3606
 Red. masses --      1.1020                 1.1825                 1.0867
 Frc consts  --      0.7707                 0.8404                 0.7794
 IR Inten    --     14.6470                34.8997                 6.2486

                     49                     50                     51
                      A                      A                      A
 Frequencies --   1105.6102              1115.4716              1122.0205
 Red. masses --      1.0901                 1.1035                 1.0858
 Frc consts  --      0.7851                 0.8090                 0.8054
 IR Inten    --      6.4472                33.1601                 3.6211

                     52                     53                     54
                      A                      A                      A
 Frequencies --   1135.2448              1161.1388              1166.4357
 Red. masses --      1.1477                 1.3236                 1.2804
 Frc consts  --      0.8715                 1.0514                 1.0264
 IR Inten    --      7.9263                33.3942                 4.7810

                     55                     56                     57
                      A                      A                      A
 Frequencies --   1206.7975              1242.1561              1303.4978
 Red. masses --      2.4378                 2.1556                 2.7732
 Frc consts  --      2.0918                 1.9597                 2.7762
 IR Inten    --     23.4147                14.1507                 1.9551

                     58                     59                     60
                      A                      A                      A
 Frequencies --   1319.9353              1373.6776              1485.0464
 Red. masses --      5.4819                 4.3978                 7.3698
 Frc consts  --      5.6271                 4.8894                 9.5761
 IR Inten    --     15.8664                 1.9481                31.6412

                     61                     62                     63
                      A                      A                      A
 Frequencies --   4180.3824              4184.8241              4228.9833
 Red. masses --      1.0590                 1.0525                 1.0319
 Frc consts  --     10.9040                10.8598                10.8738
 IR Inten    --     22.5735                 6.6063                 9.3299

                     64                     65                     66
                      A                      A                      A
 Frequencies --   4235.8529              4236.0634              4242.9000
 Red. masses --      1.0325                 1.0326                 1.0324
 Frc consts  --     10.9148                10.9171                10.9502
 IR Inten    --      9.9215                 9.4815                 9.5572

                     67                     68                     69
                      A                      A                      A
 Frequencies --   4296.6019              4340.6938              4420.1692
 Red. masses --      1.1089                 1.1194                 1.1066
 Frc consts  --     12.0618                12.4269                12.7383
 IR Inten    --     11.5682                 3.9366                 5.1039

                     70                     71                     72
                      A                      A                      A
 Frequencies --   4423.0242              4423.9149              4424.4287
 Red. masses --      1.1062                 1.1065                 1.1067
 Frc consts  --     12.7505                12.7591                12.7639
 IR Inten    --      4.2703                 7.9380                 9.0169

                     73                     74                     75
                      A                      A                      A
 Frequencies --   4428.2198              4432.0259              4434.9952
 Red. masses --      1.1066                 1.1068                 1.1069
 Frc consts  --     12.7847                12.8094                12.8270
 IR Inten    --      4.9916                 4.9294                 3.5906

                     76                     77                     78
                      A                      A                      A
 Frequencies --   4442.9036              4810.7663              4939.9388
 Red. masses --      1.1065                 1.0500                 1.0954
 Frc consts  --     12.8686                14.3179                15.7498
 IR Inten    --      5.4915                 1.8312                 4.5610

 - Thermochemistry -
 -------------------
 Temperature   298.150 Kelvin.  Pressure   1.00000 Atm.
 Atom     1 has atomic number  7 and mass  14.00307

 Molecular mass:   142.14700 amu.
 Principal axes and moments of inertia in atomic units:
                           1         2         3
     Eigenvalues --   713.529482449.378492537.88334
           X            0.99998   0.00184   0.00627
           Y           -0.00149   0.99844  -0.05590
           Z           -0.00636   0.05589   0.99842
 This molecule is an asymmetric top.
 Rotational symmetry number  1.
 Warning -- assumption of classical behavior for rotation
           may cause significant error
 Rotational temperatures (Kelvin)      0.12139     0.03536     0.03413
 Rotational constants (GHZ):           2.52932     0.73682     0.71112
   19 imaginary frequencies ignored.
 Zero-point vibrational energy     686725.5 (Joules/Mol)
                                  164.13132 (Kcal/Mol)
 Warning -- explicit consideration of   8 degrees of freedom as
           vibrations may cause significant error
 Vibrational temperatures:    291.81   380.22   449.86   486.62   595.63
          (Kelvin)            641.78   856.04   871.17   893.66   978.35
                              998.79  1002.05  1014.10  1033.72  1038.33
                             1049.23  1082.23  1097.69  1101.76  1114.50
                             1200.92  1322.32  1374.25  1420.12  1545.84
                             1563.01  1567.54  1580.19  1587.49  1590.73
                             1604.91  1614.34  1633.36  1670.62  1678.24
                             1736.31  1787.19  1875.44  1899.09  1976.42
                             2136.65  6014.64  6021.03  6084.56  6094.45
                             6094.75  6104.59  6181.85  6245.29  6359.64
                             6363.75  6365.03  6365.77  6371.22  6376.70
                             6380.97  6392.35  6921.62  7107.47

 Zero-point correction=                           0.261560 (Hartree/Particle)
 Thermal correction to Energy=                    0.268884
 Thermal correction to Enthalpy=                  0.269828
 Thermal correction to Gibbs Free Energy=         0.229744
 Sum of electronic and zero-point Energies=           -423.900785
 Sum of electronic and thermal Energies=              -423.893461
 Sum of electronic and thermal Enthalpies=            -423.892516
 Sum of electronic and thermal Free Energies=         -423.932601

                     E (Thermal)             CV                S
                      KCal/Mol        Cal/Mol-Kelvin    Cal/Mol-Kelvin
 Total                  168.727             32.920             84.364
 Electronic               0.000              0.000              0.000
 Translational            0.889              2.981             40.766
 Rotational               0.889              2.981             29.874
 Vibrational            166.950             26.958             13.724
 Vibration     1          0.639              1.836              2.107
 Vibration     2          0.671              1.738              1.633
 Vibration     3          0.701              1.650              1.348
 Vibration     4          0.719              1.599              1.221
 Vibration     5          0.778              1.440              0.913
 Vibration     6          0.805              1.370              0.808
 Vibration     7          0.953              1.042              0.458
 Vibration     8          0.964              1.020              0.440

 Normal termination of Gaussian 16 at Sat Mar  4 11:38:32 2023.
