 Gaussian 16, Revision C.01,
 Gaussian 16:  ES64L-G16RevC.01  3-Jul-2019

 ----------------------------------------------------------------------
 #p pop=(regular,nbo,savenbos) freq=noraman def2svp empiricaldispersion
 =gd3bj output=wfx pbe1pbe
 ----------------------------------------------------------------------

 -----------------------------------------
 AMIMOY_Complex_12_Ligand_1_ON_Cu_oriented
 -----------------------------------------
 Symbolic Z-matrix:
 Charge =  0 Multiplicity = 1

                         Standard orientation:
 ---------------------------------------------------------------------
 Center     Atomic      Atomic             Coordinates (Angstroms)
 Number     Number       Type             X           Y           Z
 ---------------------------------------------------------------------
      1          8           0       -3.535118    0.563731   -0.404649
      2          8           0       -2.848684   -1.405685    0.404927
      3          6           0       -2.623945   -0.280680   -0.044066
      4          6           0       -1.177172    0.174020   -0.282954
      5          1           0       -1.006482   -0.147309   -1.075211
      6          7           0       -1.133579    1.650187   -0.384405
      7          1           0       -0.513507    1.863286   -0.861793
      8          1           0       -1.029566    1.988375    0.382657
      9          7           0        1.806237   -0.925844   -0.605031
     10          7           0        3.327403    0.418446    0.122433
     11          6           0       -0.216453   -0.389133    0.773283
     12          6           0        1.225104   -0.183015    0.406655
     13          6           0        2.184473    0.659977    0.856309
     14          6           0        3.070708   -0.541253   -0.753505
     15          1           0        1.528690   -1.540918   -0.999801
     16          1           0        4.201754    0.747608    0.105006
     17          1           0       -0.439936   -1.287607    0.852838
     18          1           0       -0.269328    0.033860    1.682976
     19          1           0        3.739013   -0.886727   -1.336364
     20          1           0        2.083067    1.326047    1.582150
 ---------------------------------------------------------------------

 SCF Done:  E(RPBE1PBE) =  -547.378696373     A.U. after   24 cycles

 The electronic state is 1-A.
 Alpha  occ. eigenvalues --  -19.05609 -19.03854 -14.56439 -14.53698 -14.29928
 Alpha  occ. eigenvalues --  -10.40543 -10.35487 -10.34691 -10.23433 -10.21800
 Alpha  occ. eigenvalues --  -10.21125  -1.18657  -1.06754  -0.94933  -0.91988
 Alpha  occ. eigenvalues --   -0.90472  -0.83492  -0.82703  -0.80854  -0.74187
 Alpha  occ. eigenvalues --   -0.71116  -0.66240  -0.65013  -0.59777  -0.58368
 Alpha  occ. eigenvalues --   -0.55872  -0.54324  -0.50021  -0.46771  -0.45355
 Alpha  occ. eigenvalues --   -0.43571  -0.41780  -0.40712  -0.34502  -0.34189
 Alpha  occ. eigenvalues --   -0.30205  -0.29391  -0.22574  -0.16035  -0.15328
 Alpha  occ. eigenvalues --   -0.12940
 Alpha virt. eigenvalues --   -0.09903  -0.03152  -0.00547   0.03679   0.05900
 Alpha virt. eigenvalues --    0.06939   0.10042   0.11062   0.12977   0.14065
 Alpha virt. eigenvalues --    0.14937   0.15729   0.18097   0.19037   0.20240

 Mulliken charges:
               1
     1  O   -0.412448
     2  O   -0.387831
     3  C    0.154418
     4  C   -0.000204
     5  H   -0.104734
     6  N    0.029627
     7  H   -0.029858
     8  H   -0.000905
     9  N    0.085970
    10  N   -0.058851
    11  C    0.357128
    12  C   -0.111095
    13  C    0.122592
    14  C    0.275923
    15  H   -0.003126
    16  H    0.134626
    17  H   -0.055112
    18  H   -0.010019
    19  H    0.007442
    20  H    0.006457
 Sum of Mulliken charges =  -0.00000

 Dipole moment (field-independent basis, Debye):
    X=             22.9554    Y=              0.3449    Z=             -0.5034  Tot=             22.9635
 Quadrupole moment (field-independent basis, Debye-Ang):
   XX=            -74.7223   YY=            -64.5787   ZZ=            -58.1478
   XY=             -1.2519   XZ=             -5.7436   YZ=              8.9669

  Exact polarizability:     255.686      -7.418      69.273      -6.485       3.949      60.513
 Approx polarizability:     522.535     -46.242     119.766      -9.515       8.626      95.049

 Summary of Natural Population Analysis:

                                       Natural Population
                Natural  -----------------------------------------------
    Atom  No    Charge         Core      Valence    Rydberg      Total
 -----------------------------------------------------------------------
      O    1   -0.72280      1.99978     6.71464    0.00838     8.72280
      O    2   -0.75820      1.99973     6.74822    0.01024     8.75820
      C    3    0.77434      1.99947     3.15559    0.07060     5.22566
      C    4   -0.05070      1.99856     4.02606    0.02608     6.05070
      H    5    0.12334      0.00000     0.86993    0.00673     0.87666
      N    6   -0.70386      1.99925     5.67478    0.02983     7.70386
      H    7    0.27030      0.00000     0.72390    0.00580     0.72970
      H    8    0.28890      0.00000     0.70477    0.00634     0.71110
      N    9   -0.39953      1.99901     5.38404    0.01648     7.39953
      N   10   -0.49277      1.99923     5.48348    0.01005     7.49277
      C   11   -0.42635      1.99893     4.40645    0.02096     6.42635
      C   12    0.21011      1.99910     3.76555    0.02524     5.78989
      C   13   -0.03805      1.99889     4.01936    0.01980     6.03805
      C   14    0.32663      1.99932     3.64885    0.02519     5.67337
      H   15    0.33073      0.00000     0.66520    0.00407     0.66927
      H   16    0.42119      0.00000     0.57460    0.00421     0.57881
      H   17    0.21783      0.00000     0.77101    0.01116     0.78217
      H   18    0.22039      0.00000     0.77555    0.00406     0.77961
      H   19    0.18249      0.00000     0.81547    0.00204     0.81751
      H   20    0.22600      0.00000     0.77185    0.00215     0.77400
 =======================================================================
   * Total *    0.00000     21.99128    59.69931    0.30940    82.00000

 ******   14 imaginary frequencies (negative Signs) ******

                      1                      2                      3
                      A                      A                      A
 Frequencies --  -2803.3388             -2477.5651             -2409.0984
 Red. masses --      1.0814                 1.0684                 1.0570
 Frc consts  --      5.0069                 3.8639                 3.6143
 IR Inten    --     73.6266               146.9130                20.6247

                      4                      5                      6
                      A                      A                      A
 Frequencies --  -2201.6681             -1875.4943             -1744.3653
 Red. masses --      1.0885                 1.0469                 1.0782
 Frc consts  --      3.1087                 2.1696                 1.9329
 IR Inten    --     66.8602                29.6247                 4.1003

                      7                      8                      9
                      A                      A                      A
 Frequencies --  -1611.0085             -1241.6841             -1224.1072
 Red. masses --      1.0887                 1.0416                 1.0860
 Frc consts  --      1.6647                 0.9462                 0.9588
 IR Inten    --      5.7225                 7.1441                40.5672

                     10                     11                     12
                      A                      A                      A
 Frequencies --  -1169.3179             -1077.4552              -955.9190
 Red. masses --      1.1257                 1.1063                 1.0657
 Frc consts  --      0.9069                 0.7567                 0.5737
 IR Inten    --     19.4350                11.2999                67.7062

                     13                     14                     15
                      A                      A                      A
 Frequencies --   -802.7906              -509.8614                96.1629
 Red. masses --      1.0706                 1.2578                 7.5256
 Frc consts  --      0.4065                 0.1926                 0.0410
 IR Inten    --     23.5002                 2.7727                 5.2122

                     16                     17                     18
                      A                      A                      A
 Frequencies --    124.6320               156.1223               201.3994
 Red. masses --      7.3990                 6.9122                 6.4239
 Frc consts  --      0.0677                 0.0993                 0.1535
 IR Inten    --      1.1979                 5.2179                 2.0196

                     19                     20                     21
                      A                      A                      A
 Frequencies --    276.0682               349.2078               401.2097
 Red. masses --      2.6022                 7.2033                 4.8198
 Frc consts  --      0.1169                 0.5175                 0.4571
 IR Inten    --      6.7962                 1.6057                38.8910

                     22                     23                     24
                      A                      A                      A
 Frequencies --    479.6846               521.8236               537.8703
 Red. masses --      2.5343                 3.0595                 2.0238
 Frc consts  --      0.3436                 0.4909                 0.3450
 IR Inten    --      2.1795                12.0661                20.5874

                     25                     26                     27
                      A                      A                      A
 Frequencies --    654.6007               668.3614               692.9599
 Red. masses --      4.1534                 5.6546                 2.6766
 Frc consts  --      1.0486                 1.4883                 0.7573
 IR Inten    --      0.5234                16.5652                19.5421

                     28                     29                     30
                      A                      A                      A
 Frequencies --    709.8357               777.9890               804.8049
 Red. masses --      5.2858                 4.9348                 4.2084
 Frc consts  --      1.5692                 1.7598                 1.6060
 IR Inten    --      2.9422                 8.9140                30.1457

                     31                     32                     33
                      A                      A                      A
 Frequencies --    842.5609               870.0196               991.7113
 Red. masses --      4.8117                 1.8713                 1.5823
 Frc consts  --      2.0126                 0.8345                 0.9169
 IR Inten    --      3.7588                15.7213                17.9751

                     34                     35                     36
                      A                      A                      A
 Frequencies --   1017.8408              1030.5056              1075.8692
 Red. masses --      4.4515                 5.1894                 2.8884
 Frc consts  --      2.7172                 3.2469                 1.9698
 IR Inten    --      4.3789                26.0610                23.0981

                     37                     38                     39
                      A                      A                      A
 Frequencies --   1091.3448              1128.4373              1263.8449
 Red. masses --      4.8866                 5.2755                 7.2253
 Frc consts  --      3.4291                 3.9579                 6.7997
 IR Inten    --     10.1678                26.9121               117.7958

                     40                     41                     42
                      A                      A                      A
 Frequencies --   1292.5684              1375.1455              1431.0120
 Red. masses --     10.3704                 7.3203                 6.5092
 Frc consts  --     10.2083                 8.1560                 7.8535
 IR Inten    --     56.6320                98.1984               297.4734

                     43                     44                     45
                      A                      A                      A
 Frequencies --   1586.9376              1655.7747              1742.3945
 Red. masses --      9.8915                 9.3985                12.9294
 Frc consts  --     14.6769                15.1814                23.1271
 IR Inten    --     36.5511                 4.4932               572.7141

                     46                     47                     48
                      A                      A                      A
 Frequencies --   4079.9004              4313.0313              4693.5343
 Red. masses --      1.0789                 1.0955                 1.0800
 Frc consts  --     10.5811                12.0071                14.0174
 IR Inten    --      1.9218                23.7431               392.2837

                     49                     50                     51
                      A                      A                      A
 Frequencies --   4783.2020              5027.1439              5878.5689
 Red. masses --      1.0937                 1.0880                 1.0870
 Frc consts  --     14.7430                16.1997                22.1331
 IR Inten    --    240.2355                 4.3926                 1.6637

                     52                     53                     54
                      A                      A                      A
 Frequencies --   6122.3562              6803.7236              7459.0025
 Red. masses --      1.0657                 1.0794                 1.0774
 Frc consts  --     23.5365                29.4397                35.3169
 IR Inten    --     10.0791                 4.8599               175.5743

 - Thermochemistry -
 -------------------
 Temperature   298.150 Kelvin.  Pressure   1.00000 Atm.
 Atom     1 has atomic number  8 and mass  15.99491

 Molecular mass:   155.06948 amu.
 Principal axes and moments of inertia in atomic units:
                           1         2         3
     Eigenvalues --   591.356393309.273503548.97583
           X            0.99999  -0.00237  -0.00306
           Y            0.00251   0.99889   0.04707
           Z            0.00295  -0.04707   0.99889
 This molecule is an asymmetric top.
 Rotational symmetry number  1.
 Warning -- assumption of classical behavior for rotation
           may cause significant error
 Rotational temperatures (Kelvin)      0.14647     0.02617     0.02441
 Rotational constants (GHZ):           3.05187     0.54536     0.50852
   14 imaginary frequencies ignored.
 Zero-point vibrational energy     448654.4 (Joules/Mol)
                                  107.23098 (Kcal/Mol)
 Warning -- explicit consideration of  10 degrees of freedom as
           vibrations may cause significant error
 Vibrational temperatures:    138.36   179.32   224.63   289.77   397.20
          (Kelvin)            502.43   577.25   690.16   750.79   773.88
                              941.82   961.62   997.01  1021.30  1119.35
                             1157.93  1212.26  1251.76  1426.85  1464.45
                             1482.67  1547.94  1570.20  1623.57  1818.39
                             1859.72  1978.53  2058.91  2283.25  2382.29
                             2506.92  5870.07  6205.49  6752.95  6881.96
                             7232.94  8457.95  8808.71  9789.04 10731.84

 Zero-point correction=                           0.170883 (Hartree/Particle)
 Thermal correction to Energy=                    0.179104
 Thermal correction to Enthalpy=                  0.180049
 Thermal correction to Gibbs Free Energy=         0.136886
 Sum of electronic and zero-point Energies=           -547.207813
 Sum of electronic and thermal Energies=              -547.199592
 Sum of electronic and thermal Enthalpies=            -547.198648
 Sum of electronic and thermal Free Energies=         -547.241810

                     E (Thermal)             CV                S
                      KCal/Mol        Cal/Mol-Kelvin    Cal/Mol-Kelvin
 Total                  112.390             30.512             90.843
 Electronic               0.000              0.000              0.000
 Translational            0.889              2.981             41.026
 Rotational               0.889              2.981             30.319
 Vibrational            110.612             24.551             19.498
 Vibration     1          0.603              1.952              3.531
 Vibration     2          0.610              1.928              3.027
 Vibration     3          0.620              1.896              2.596
 Vibration     4          0.638              1.838              2.120
 Vibration     5          0.678              1.718              1.558
 Vibration     6          0.726              1.577              1.170
 Vibration     7          0.767              1.468              0.958
 Vibration     8          0.836              1.295              0.711
 Vibration     9          0.877              1.202              0.606
 Vibration    10          0.893              1.166              0.570

 1\1\GINC-JST269\Freq\RPBE1PBE\def2SVP\C6H9N3O2\LAPLAZA\04-Mar-2023\0\\
 #p pop=(regular,nbo,savenbos) freq=noraman def2svp empiricaldispersion
 =gd3bj output=wfx pbe1pbe\\AMIMOY_Complex_12_Ligand_1_ON_Cu_oriented\\
 0,1\O,-0.57489793,1.8796572,0.\O,0.15505436,3.98656055,0.18257931\C,0.
 34621841,2.76951668,0.18160798\C,1.74427967,2.21326453,0.4865342\H,1.7
 5123398,2.18689127,1.35792093\N,1.83794833,0.81835579,0.\H,2.36912485,
 0.41381707,0.46043324\H,2.09687952,0.81083409,-0.80403523\N,4.56263356
 ,3.00187606,1.77072126\N,6.2531082,2.01297271,0.86815082\C,2.85505348,

 Normal termination of Gaussian 16 at Sat Mar  4 11:26:26 2023.
