 Gaussian 16, Revision C.01,
 Gaussian 16:  ES64L-G16RevC.01  3-Jul-2019

 ----------------------------------------------------------------------
 #p pop=(regular,nbo,savenbos) freq=noraman def2svp empiricaldispersion
 =gd3bj output=wfx pbe1pbe
 ----------------------------------------------------------------------

 ----------------------------------------
 ANOPOL_Complex_2_Ligand_0_NN_Cu_oriented
 ----------------------------------------
 Symbolic Z-matrix:
 Charge =  0 Multiplicity = 1

                         Standard orientation:
 ---------------------------------------------------------------------
 Center     Atomic      Atomic             Coordinates (Angstroms)
 Number     Number       Type             X           Y           Z
 ---------------------------------------------------------------------
      1          7           0        4.081700   -0.706769    0.030932
      2          7           0        1.512598   -1.444391   -0.241046
      3          7           0        0.160787   -1.520467   -0.211922
      4          1           0       -0.285048   -2.278860   -0.220963
      5          6           0        6.370000   -1.490998    0.261798
      6          1           0        6.047465   -2.144411    0.917301
      7          1           0        7.234151   -1.133643    0.554622
      8          1           0        6.475025   -1.927113   -0.609599
      9          6           0        5.384254   -0.376285    0.144310
     10          6           0        5.814445    0.940821    0.136836
     11          1           0        6.736879    1.146363    0.231799
     12          6           0        4.889612    1.945596   -0.009273
     13          1           0        5.169232    2.854105   -0.009617
     14          6           0        3.538224    1.628111   -0.157217
     15          1           0        2.885535    2.308371   -0.275674
     16          6           0        3.177591    0.289098   -0.125937
     17          6           0        1.780230   -0.130942   -0.216300
     18          6           0        0.593861    0.617015   -0.180942
     19          6           0       -0.431631   -0.302909   -0.166965
     20          6           0       -1.922551   -0.127326   -0.066321
     21          6           0       -2.528531   -1.117832    0.948401
     22          1           0       -2.104928   -0.987333    1.833726
     23          6           0       -4.044242   -0.899008    1.066074
     24          1           0       -4.423591   -1.550629    1.723309
     25          6           0       -4.318750    0.517609    1.545410
     26          1           0       -3.899813    0.660331    2.431144
     27          6           0       -3.745408    1.504779    0.535719
     28          1           0       -3.932171    2.438222    0.843224
     29          6           0       -2.227106    1.305704    0.413866
     30          1           0       -1.798546    1.460582    1.292518
     31          1           0       -1.855659    1.958814   -0.230645
     32          6           0       -4.386349    1.285928   -0.827644
     33          1           0       -4.016823    1.935325   -1.477420
     34          6           0       -4.110812   -0.139993   -1.308945
     35          1           0       -4.538981   -0.277805   -2.202029
     36          6           0       -2.591527   -0.363075   -1.430119
     37          1           0       -2.214090    0.260686   -2.099951
     38          6           0       -4.688440   -1.132251   -0.313398
     39          1           0       -4.507390   -2.056535   -0.616652
     40          1           0       -5.669252   -1.012076   -0.250607
     41          1           0       -5.362986    1.434359   -0.764364
     42          1           0       -2.412603   -1.288253   -1.734306
     43          1           0       -2.349008   -2.045692    0.654525
     44          1           0       -5.294521    0.658814    1.637188
     45          1           0        0.514295    1.563515   -0.169393
 ---------------------------------------------------------------------

 SCF Done:  E(RPBE1PBE) =  -900.255181446     A.U. after   14 cycles

 The electronic state is 1-A.
 Alpha  occ. eigenvalues --  -14.44647 -14.39043 -14.36545 -10.26364 -10.26195
 Alpha  occ. eigenvalues --  -10.26036 -10.25246 -10.24214 -10.22889 -10.22299
 Alpha  occ. eigenvalues --  -10.22107 -10.21997 -10.21827 -10.21284 -10.21148
 Alpha  occ. eigenvalues --  -10.20837 -10.20641 -10.20519 -10.20263 -10.20156
 Alpha  occ. eigenvalues --  -10.20107 -10.18453  -1.06349  -0.94866  -0.90994
 Alpha  occ. eigenvalues --   -0.85667  -0.82756  -0.81691  -0.80532  -0.80487
 Alpha  occ. eigenvalues --   -0.79855  -0.77363  -0.73305  -0.71119  -0.71040
 Alpha  occ. eigenvalues --   -0.67496  -0.64809  -0.62928  -0.62523  -0.62191
 Alpha  occ. eigenvalues --   -0.61153  -0.58228  -0.56515  -0.53689  -0.52796
 Alpha  occ. eigenvalues --   -0.50493  -0.49418  -0.49196  -0.49154  -0.48043
 Alpha  occ. eigenvalues --   -0.46831  -0.46365  -0.46306  -0.45268  -0.44182
 Alpha  occ. eigenvalues --   -0.44013  -0.43576  -0.43026  -0.42197  -0.41925
 Alpha  occ. eigenvalues --   -0.41793  -0.40884  -0.39596  -0.39192  -0.36950
 Alpha  occ. eigenvalues --   -0.35903  -0.35572  -0.35287  -0.35055  -0.34843
 Alpha  occ. eigenvalues --   -0.30962  -0.30667  -0.30134  -0.30020  -0.28517
 Alpha  occ. eigenvalues --   -0.27788  -0.24847  -0.24658  -0.23141
 Alpha virt. eigenvalues --   -0.02355  -0.00318   0.03713   0.05790   0.08627
 Alpha virt. eigenvalues --    0.09625   0.09883   0.10512   0.10572   0.11280
 Alpha virt. eigenvalues --    0.11527   0.12212   0.12532   0.12947   0.14223

 Mulliken charges:
               1
     1  N   -0.166632
     2  N   -0.125252
     3  N   -0.000569
     4  H    0.047739
     5  C    0.279934
     6  H    0.002917
     7  H   -0.033672
     8  H    0.011296
     9  C   -0.155558
    10  C    0.061867
    11  H   -0.091694
    12  C    0.159554
    13  H   -0.080810
    14  C    0.026392
    15  H   -0.096903
    16  C    0.057048
    17  C    0.063597
    18  C   -0.079393
    19  C    0.203022
    20  C   -0.484828
    21  C    0.249391
    22  H   -0.021432
    23  C   -0.186699
    24  H   -0.021174
    25  C    0.229039
    26  H   -0.028066
    27  C   -0.169200
    28  H   -0.023947
    29  C    0.249151
    30  H   -0.024570
    31  H   -0.016699
    32  C    0.218154
    33  H   -0.028736
    34  C   -0.178075
    35  H   -0.021318
    36  C    0.294791
    37  H   -0.028291
    38  C    0.217884
    39  H   -0.031011
    40  H   -0.029326
    41  H   -0.031044
    42  H   -0.040983
    43  H   -0.037635
    44  H   -0.029409
    45  H   -0.108852
 Sum of Mulliken charges =  -0.00000

 Dipole moment (field-independent basis, Debye):
    X=             -2.7688    Y=              1.6744    Z=              0.1837  Tot=              3.2409
 Quadrupole moment (field-independent basis, Debye-Ang):
   XX=           -114.1975   YY=           -123.6088   ZZ=           -130.8038
   XY=              9.0721   XZ=              0.9411   YZ=             -0.2945

  Exact polarizability:     284.937       5.051     181.378       4.502      -0.907     131.207
 Approx polarizability:     344.253      10.429     305.275       7.987      -1.345     198.453

 Summary of Natural Population Analysis:

                                       Natural Population
                Natural  -----------------------------------------------
    Atom  No    Charge         Core      Valence    Rydberg      Total
 -----------------------------------------------------------------------
      N    1   -0.48191      1.99924     5.46631    0.01636     7.48191
      N    2   -0.27762      1.99938     5.25824    0.02001     7.27762
      N    3   -0.29189      1.99908     5.27626    0.01655     7.29189
      H    4    0.36398      0.00000     0.63226    0.00376     0.63602
      C    5   -0.58404      1.99914     4.57592    0.00897     6.58404
      H    6    0.21284      0.00000     0.78403    0.00313     0.78716
      H    7    0.19173      0.00000     0.80593    0.00234     0.80827
      H    8    0.21074      0.00000     0.78655    0.00271     0.78926
      C    9    0.26780      1.99907     3.70970    0.02343     5.73220
      C   10   -0.24372      1.99898     4.23059    0.01415     6.24372
      H   11    0.18335      0.00000     0.81361    0.00303     0.81665
      C   12   -0.12630      1.99912     4.11307    0.01412     6.12630
      H   13    0.17903      0.00000     0.81811    0.00285     0.82097
      C   14   -0.21972      1.99904     4.20707    0.01360     6.21972
      H   15    0.18348      0.00000     0.81343    0.00310     0.81652
      C   16    0.20458      1.99896     3.77136    0.02510     5.79542
      C   17    0.12897      1.99906     3.84214    0.02983     5.87103
      C   18   -0.29976      1.99895     4.28810    0.01271     6.29976
      C   19    0.18513      1.99901     3.78455    0.03131     5.81487
      C   20   -0.08432      1.99898     4.06907    0.01627     6.08432
      C   21   -0.38621      1.99907     4.36746    0.01968     6.38621
      H   22    0.20752      0.00000     0.78895    0.00353     0.79248
      C   23   -0.19647      1.99908     4.17999    0.01739     6.19647
      H   24    0.20473      0.00000     0.79116    0.00412     0.79527
      C   25   -0.39017      1.99909     4.37396    0.01711     6.39017
      H   26    0.19864      0.00000     0.79771    0.00365     0.80136
      C   27   -0.19689      1.99908     4.18049    0.01733     6.19689
      H   28    0.20478      0.00000     0.79108    0.00414     0.79522
      C   29   -0.38499      1.99909     4.36650    0.01940     6.38499
      H   30    0.20652      0.00000     0.78987    0.00361     0.79348
      H   31    0.20222      0.00000     0.79399    0.00379     0.79778
      C   32   -0.39005      1.99909     4.37379    0.01717     6.39005
      H   33    0.19802      0.00000     0.79835    0.00363     0.80198
      C   34   -0.19878      1.99907     4.18242    0.01728     6.19878
      H   35    0.20476      0.00000     0.79109    0.00415     0.79524
      C   36   -0.37945      1.99906     4.36080    0.01959     6.37945
      H   37    0.20634      0.00000     0.79025    0.00341     0.79366
      C   38   -0.38918      1.99909     4.37306    0.01703     6.38918
      H   39    0.19610      0.00000     0.80027    0.00363     0.80390
      H   40    0.19847      0.00000     0.79787    0.00365     0.80153
      H   41    0.19813      0.00000     0.79820    0.00367     0.80187
      H   42    0.19757      0.00000     0.79878    0.00365     0.80243
      H   43    0.19137      0.00000     0.80494    0.00369     0.80863
      H   44    0.19896      0.00000     0.79742    0.00363     0.80104
      H   45    0.19568      0.00000     0.80214    0.00218     0.80432
 =======================================================================
   * Total *    0.00000     43.97971   113.53683    0.48346   158.00000

 ******   24 imaginary frequencies (negative Signs) ******

                      1                      2                      3
                      A                      A                      A
 Frequencies --  -1607.7341             -1249.9976             -1233.2495
 Red. masses --      1.0791                 1.0111                 1.0778
 Frc consts  --      1.6434                 0.9308                 0.9658
 IR Inten    --     60.5367                 0.2683                31.6919

                      4                      5                      6
                      A                      A                      A
 Frequencies --  -1180.2676             -1128.7309              -990.3858
 Red. masses --      1.0581                 1.0259                 1.0240
 Frc consts  --      0.8685                 0.7700                 0.5918
 IR Inten    --     31.4937                 0.4396                 0.6643

                      7                      8                      9
                      A                      A                      A
 Frequencies --   -886.8625              -881.4468              -876.2856
 Red. masses --      1.0587                 1.0339                 1.0339
 Frc consts  --      0.4906                 0.4733                 0.4677
 IR Inten    --     36.8098                 0.8470                 0.8062

                     10                     11                     12
                      A                      A                      A
 Frequencies --   -875.4124              -873.0037              -871.2135
 Red. masses --      1.0391                 1.0351                 1.0336
 Frc consts  --      0.4692                 0.4648                 0.4622
 IR Inten    --      2.4017                 0.3609                 0.8250

                     13                     14                     15
                      A                      A                      A
 Frequencies --   -866.3461              -837.8112              -801.0582
 Red. masses --      1.0414                 1.0911                 1.0630
 Frc consts  --      0.4605                 0.4512                 0.4019
 IR Inten    --      1.1549                 5.9138                 2.8719

                     16                     17                     18
                      A                      A                      A
 Frequencies --   -715.0667              -657.2810              -550.8908
 Red. masses --      1.0534                 1.1179                 1.1695
 Frc consts  --      0.3173                 0.2846                 0.2091
 IR Inten    --     28.0534                 2.8986                 8.6842

                     19                     20                     21
                      A                      A                      A
 Frequencies --   -495.7052              -327.1601              -309.7051
 Red. masses --      1.2424                 1.9014                 1.8587
 Frc consts  --      0.1799                 0.1199                 0.1050
 IR Inten    --      7.1269                 0.2047                 0.5855

                     22                     23                     24
                      A                      A                      A
 Frequencies --   -282.5205              -272.9934              -244.8512
 Red. masses --      2.1432                 2.1752                 2.5721
 Frc consts  --      0.1008                 0.0955                 0.0909
 IR Inten    --      0.2974                 0.4505                 0.2423

                     25                     26                     27
                      A                      A                      A
 Frequencies --    123.8593               140.8454               187.4561
 Red. masses --      6.1887                 3.6515                 7.7123
 Frc consts  --      0.0559                 0.0427                 0.1597
 IR Inten    --      0.3302                 0.2064                 0.8710

                     28                     29                     30
                      A                      A                      A
 Frequencies --    209.0685               224.6230               263.4306
 Red. masses --      1.6870                 1.6815                 3.9572
 Frc consts  --      0.0434                 0.0500                 0.1618
 IR Inten    --      0.2516                 0.5536                 0.2544

                     31                     32                     33
                      A                      A                      A
 Frequencies --    283.2715               308.9404               346.5148
 Red. masses --      7.1605                 3.4435                 1.1677
 Frc consts  --      0.3385                 0.1936                 0.0826
 IR Inten    --      0.0448                 1.4947                 0.0363

                     34                     35                     36
                      A                      A                      A
 Frequencies --    379.4302               415.3549               417.5412
 Red. masses --      6.8603                 4.6017                 1.1779
 Frc consts  --      0.5819                 0.4677                 0.1210
 IR Inten    --      0.0977                 0.3703                 0.0034

                     37                     38                     39
                      A                      A                      A
 Frequencies --    433.6545               439.9053               446.2937
 Red. masses --      1.9184                 2.1181                 1.6365
 Frc consts  --      0.2126                 0.2415                 0.1920
 IR Inten    --      0.5786                 0.6025                 0.8445

                     40                     41                     42
                      A                      A                      A
 Frequencies --    446.6519               467.4146               472.6627
 Red. masses --      1.8191                 1.6708                 1.7177
 Frc consts  --      0.2138                 0.2151                 0.2261
 IR Inten    --      0.4445                 1.3373                 1.3233

                     43                     44                     45
                      A                      A                      A
 Frequencies --    497.7884               575.9884               595.4945
 Red. masses --      4.5362                10.1841                 4.5083
 Frc consts  --      0.6623                 1.9907                 0.9419
 IR Inten    --      0.0577                 3.0216                 0.3722

                     46                     47                     48
                      A                      A                      A
 Frequencies --    605.2871               613.7811               618.3418
 Red. masses --      1.2958                 1.3998                 1.2905
 Frc consts  --      0.2797                 0.3107                 0.2907
 IR Inten    --      2.9109                 7.1146                 3.5742

                     49                     50                     51
                      A                      A                      A
 Frequencies --    622.0774               666.6229               673.0470
 Red. masses --      3.2649                 1.4242                 1.3682
 Frc consts  --      0.7444                 0.3729                 0.3652
 IR Inten    --      3.8597                 0.0418                 0.1141

                     52                     53                     54
                      A                      A                      A
 Frequencies --    674.1115               711.4944               716.3220
 Red. masses --      1.3694                 7.1431                 3.4349
 Frc consts  --      0.3666                 2.1305                 1.0384
 IR Inten    --      0.0618                 1.3234                 0.3533

                     55                     56                     57
                      A                      A                      A
 Frequencies --    737.8448               747.2374               749.0040
 Red. masses --      2.2236                 3.3027                 1.4496
 Frc consts  --      0.7132                 1.0865                 0.4792
 IR Inten    --      2.2215                 0.4157                10.7475

                     58                     59                     60
                      A                      A                      A
 Frequencies --    754.5674               758.8288               782.8421
 Red. masses --      3.2475                 3.8968                 3.1386
 Frc consts  --      1.0894                 1.3220                 1.1333
 IR Inten    --      2.4516                13.0098                 5.2758

                     61                     62                     63
                      A                      A                      A
 Frequencies --    814.8166               816.1420               818.4749
 Red. masses --      2.5727                 3.4178                 4.0483
 Frc consts  --      1.0064                 1.3413                 1.5979
 IR Inten    --      1.1972                 0.5895                 2.3206

                     64                     65                     66
                      A                      A                      A
 Frequencies --    825.2948               866.0610               905.7386
 Red. masses --      3.3691                 7.7580                 1.9258
 Frc consts  --      1.3520                 3.4284                 0.9308
 IR Inten    --      1.5035                 7.5902                 1.0592

                     67                     68                     69
                      A                      A                      A
 Frequencies --    909.7369               935.8898               940.2911
 Red. masses --      1.9280                 4.6222                 1.8866
 Frc consts  --      0.9401                 2.3853                 0.9828
 IR Inten    --      0.6737                10.8019                 1.1470

                     70                     71                     72
                      A                      A                      A
 Frequencies --    946.4861               949.5807               956.3803
 Red. masses --      2.2475                 2.1866                 3.1392
 Frc consts  --      1.1863                 1.1617                 1.6917
 IR Inten    --      1.5472                 0.7021                17.1312

                     73                     74                     75
                      A                      A                      A
 Frequencies --   1021.7297              1030.7607              1059.2977
 Red. masses --      5.8846                 7.4585                 3.6590
 Frc consts  --      3.6194                 4.6689                 2.4191
 IR Inten    --     18.1430                 1.4459                 0.1008

                     76                     77                     78
                      A                      A                      A
 Frequencies --   1071.8287              1072.6703              1078.7268
 Red. masses --      6.2776                 3.0181                 2.9571
 Frc consts  --      4.2491                 2.0461                 2.0274
 IR Inten    --      1.0328                 1.1819                 1.0001

                     79                     80                     81
                      A                      A                      A
 Frequencies --   1092.3567              1096.0665              1097.9705
 Red. masses --      1.1586                 1.1641                 1.0725
 Frc consts  --      0.8145                 0.8240                 0.7618
 IR Inten    --      0.8530                 0.5681                15.9331

                     82                     83                     84
                      A                      A                      A
 Frequencies --   1112.7829              1118.9469              1120.5644
 Red. masses --      1.2406                 1.2889                 1.3560
 Frc consts  --      0.9051                 0.9508                 1.0032
 IR Inten    --     23.5545                21.8217                22.7982

                     85                     86                     87
                      A                      A                      A
 Frequencies --   1128.1502              1147.4873              1169.1652
 Red. masses --      1.0966                 2.9572                 2.1527
 Frc consts  --      0.8223                 2.2942                 1.7338
 IR Inten    --      9.1421                16.4677                13.7652

                     88                     89                     90
                      A                      A                      A
 Frequencies --   1201.6177              1225.9689              1233.4394
 Red. masses --      2.9176                 4.1990                 4.3816
 Frc consts  --      2.4820                 3.7184                 3.9275
 IR Inten    --      5.9351                 0.1521                 1.3443

                     91                     92                     93
                      A                      A                      A
 Frequencies --   1245.6457              1251.0514              1255.1313
 Red. masses --      4.7745                 5.0073                 4.8473
 Frc consts  --      4.3648                 4.6175                 4.4991
 IR Inten    --      2.4975                 2.7737                 4.9908

                     94                     95                     96
                      A                      A                      A
 Frequencies --   1258.9559              1262.6919              1267.5219
 Red. masses --      5.1165                 4.9487                 5.4139
 Frc consts  --      4.7780                 4.6487                 5.1247
 IR Inten    --      7.5385                 3.0363                 0.2788

                     97                     98                     99
                      A                      A                      A
 Frequencies --   1275.1183              1335.0846              1377.7031
 Red. masses --      7.4066                 9.7406                 8.2091
 Frc consts  --      7.0953                10.2294                 9.1804
 IR Inten    --      0.4337                 6.7227                28.4645

                    100                    101                    102
                      A                      A                      A
 Frequencies --   1424.1057              1461.5346              1512.9386
 Red. masses --     10.2814                 9.9086                10.8837
 Frc consts  --     12.2853                12.4704                14.6780
 IR Inten    --      1.0522                45.8301                95.7070

                    103                    104                    105
                      A                      A                      A
 Frequencies --   1579.9192              1602.4581              1632.5606
 Red. masses --      9.7956                10.8442                11.0585
 Frc consts  --     14.4062                16.4067                17.3654
 IR Inten    --      1.9279                20.4350               152.1994

                    106                    107                    108
                      A                      A                      A
 Frequencies --   1684.9357              4116.9072              4119.9994
 Red. masses --     10.7851                 1.0875                 1.0875
 Frc consts  --     18.0402                10.8598                10.8763
 IR Inten    --     44.8063                17.7063                17.4142

                    109                    110                    111
                      A                      A                      A
 Frequencies --   4122.8010              4179.5100              4181.1322
 Red. masses --      1.0875                 1.0597                 1.0599
 Frc consts  --     10.8910                10.9063                10.9172
 IR Inten    --     16.8514                12.7734                25.9000

                    112                    113                    114
                      A                      A                      A
 Frequencies --   4181.8796              4182.7024              4185.1602
 Red. masses --      1.0598                 1.0597                 1.0601
 Frc consts  --     10.9195                10.9227                10.9400
 IR Inten    --     18.7857                30.5542                38.0072

                    115                    116                    117
                      A                      A                      A
 Frequencies --   4187.4705              4239.8441              4289.9208
 Red. masses --      1.0607                 1.0329                 1.1091
 Frc consts  --     10.9585                10.9399                12.0256
 IR Inten    --      0.2911                 4.3629                 7.7252

                    118                    119                    120
                      A                      A                      A
 Frequencies --   4291.0788              4293.7052              4294.4392
 Red. masses --      1.1090                 1.1091                 1.1091
 Frc consts  --     12.0310                12.0472                12.0518
 IR Inten    --     14.5207                 3.6981                 7.5678

                    121                    122                    123
                      A                      A                      A
 Frequencies --   4295.5037              4298.3425              4431.4627
 Red. masses --      1.1092                 1.1092                 1.1064
 Frc consts  --     12.0580                12.0742                12.8017
 IR Inten    --     23.4156                 9.3312                 3.2091

                    124                    125                    126
                      A                      A                      A
 Frequencies --   4434.3988              4759.2872              4770.4999
 Red. masses --      1.1066                 1.0877                 1.0897
 Frc consts  --     12.8202                14.5157                14.6116
 IR Inten    --      0.4768                 1.5191                 0.3438

                    127                    128                    129
                      A                      A                      A
 Frequencies --   4775.6386              4784.7440              5537.2083
 Red. masses --      1.0927                 1.0922                 1.0784
 Frc consts  --     14.6829                14.7327                19.4806
 IR Inten    --      0.0498                 1.1729               112.9381

 - Thermochemistry -
 -------------------
 Temperature   298.150 Kelvin.  Pressure   1.00000 Atm.
 Atom     1 has atomic number  7 and mass  14.00307

 Molecular mass:   293.18920 amu.
 Principal axes and moments of inertia in atomic units:
                           1         2         3
     Eigenvalues --  1868.07109********************
           X            1.00000  -0.00213   0.00074
           Y            0.00213   0.99998  -0.00621
           Z           -0.00073   0.00621   0.99998
 This molecule is an asymmetric top.
 Rotational symmetry number  1.
 Warning -- assumption of classical behavior for rotation
           may cause significant error
 Rotational temperatures (Kelvin)      0.04637     0.00571     0.00543
 Rotational constants (GHZ):           0.96610     0.11902     0.11322
   24 imaginary frequencies ignored.
 Zero-point vibrational energy    1030301.8 (Joules/Mol)
                                  246.24805 (Kcal/Mol)
 Warning -- explicit consideration of  24 degrees of freedom as
           vibrations may cause significant error
 Vibrational temperatures:    178.21   202.65   269.71   300.80   323.18
          (Kelvin)            379.02   407.56   444.50   498.56   545.92
                              597.60   600.75   623.93   632.93   642.12
                              642.63   672.51   680.06   716.21   828.72
                              856.78   870.87   883.09   889.66   895.03
                              959.12   968.36   969.90  1023.68  1030.63
                             1061.59  1075.11  1077.65  1085.65  1091.79
                             1126.34  1172.34  1174.25  1177.60  1187.42
                             1246.07  1303.16  1308.91  1346.54  1352.87
                             1361.78  1366.23  1376.02  1470.04  1483.03
                             1524.09  1542.12  1543.33  1552.05  1571.66
                             1577.00  1579.73  1601.05  1609.92  1612.24
                             1623.16  1650.98  1682.17  1728.86  1763.90
                             1774.64  1792.21  1799.98  1805.85  1811.36
                             1816.73  1823.68  1834.61  1920.89  1982.21
                             2048.97  2102.82  2176.78  2273.15  2305.58
                             2348.89  2424.25  5923.31  5927.76  5931.79
                             6013.38  6015.72  6016.79  6017.98  6021.51
                             6024.84  6100.19  6172.24  6173.91  6177.68
                             6178.74  6180.27  6184.36  6375.89  6380.11
                             6847.55  6863.69  6871.08  6884.18  7966.81

 Zero-point correction=                           0.392421 (Hartree/Particle)
 Thermal correction to Energy=                    0.406005
 Thermal correction to Enthalpy=                  0.406949
 Thermal correction to Gibbs Free Energy=         0.353557
 Sum of electronic and zero-point Energies=           -899.862760
 Sum of electronic and thermal Energies=              -899.849177
 Sum of electronic and thermal Enthalpies=            -899.848232
 Sum of electronic and thermal Free Energies=         -899.901624

                     E (Thermal)             CV                S
                      KCal/Mol        Cal/Mol-Kelvin    Cal/Mol-Kelvin
 Total                  254.772             63.481            112.372
 Electronic               0.000              0.000              0.000
 Translational            0.889              2.981             42.924
 Rotational               0.889              2.981             34.467
 Vibrational            252.994             57.519             34.981
 Vibration     1          0.610              1.929              3.039
 Vibration     2          0.615              1.912              2.792
 Vibration     3          0.632              1.857              2.253
 Vibration     4          0.642              1.827              2.052
 Vibration     5          0.649              1.804              1.922
 Vibration     6          0.670              1.740              1.639
 Vibration     7          0.682              1.705              1.514
 Vibration     8          0.698              1.657              1.368
 Vibration     9          0.725              1.582              1.182
 Vibration    10          0.749              1.514              1.041
 Vibration    11          0.779              1.437              0.908
 Vibration    12          0.781              1.432              0.900
 Vibration    13          0.794              1.397              0.847
 Vibration    14          0.800              1.383              0.827
 Vibration    15          0.806              1.369              0.807
 Vibration    16          0.806              1.368              0.806
 Vibration    17          0.825              1.322              0.745
 Vibration    18          0.830              1.311              0.730
 Vibration    19          0.853              1.255              0.664
 Vibration    20          0.932              1.083              0.493
 Vibration    21          0.953              1.041              0.457
 Vibration    22          0.964              1.021              0.441
 Vibration    23          0.973              1.003              0.427
 Vibration    24          0.978              0.993              0.419

 1\1\GINC-JST297\Freq\RPBE1PBE\def2SVP\C19H23N3\LAPLAZA\04-Mar-2023\0\\
 #p pop=(regular,nbo,savenbos) freq=noraman def2svp empiricaldispersion
 =gd3bj output=wfx pbe1pbe\\ANOPOL_Complex_2_Ligand_0_NN_Cu_oriented\\0
 ,1\N,-1.64609131,-1.30538609,0.\N,-1.56164074,1.37998371,0.\N,-1.79679
 277,2.69860795,-0.19990618\H,-1.16909917,3.3146318,-0.17697658\C,-0.33
 206684,-3.34390311,0.14972135\H,0.30579984,-2.94230264,-0.4767812\H,-0
 .4407417,-4.2950387,-0.05941444\H,0.00417588,-3.24690663,1.06519531\C,
 -1.65000078,-2.6536822,0.0283667\C,-2.82248217,-3.38940203,-0.03402298

 Normal termination of Gaussian 16 at Sat Mar  4 12:59:19 2023.
