 Gaussian 16, Revision C.01,
 Gaussian 16:  ES64L-G16RevC.01  3-Jul-2019

 ----------------------------------------------------------------------
 #p pop=(regular,nbo,savenbos) freq=noraman def2svp empiricaldispersion
 =gd3bj output=wfx pbe1pbe
 ----------------------------------------------------------------------

 ----------------------------------------
 ASOXIQ_Complex_0_Ligand_0_NN_Cu_oriented
 ----------------------------------------
 Symbolic Z-matrix:
 Charge =  0 Multiplicity = 1

                         Standard orientation:
 ---------------------------------------------------------------------
 Center     Atomic      Atomic             Coordinates (Angstroms)
 Number     Number       Type             X           Y           Z
 ---------------------------------------------------------------------
      1          6           0       -0.783010   -0.457708   -0.063952
      2          1           0       -0.205055    0.149649   -0.610148
      3          6           0       -0.070210   -0.602179    1.293974
      4          1           0       -0.320727    0.169935    1.861229
      5          6           0        1.467664   -0.685378    1.241403
      6          1           0        1.794512   -0.582120    2.181120
      7          6           0        2.115442    0.422456    0.425719
      8          6           0        1.714631    1.743789    0.650634
      9          1           0        1.037343    1.924351    1.291982
     10          6           0        2.287702    2.788425   -0.044923
     11          6           0        3.301264    2.542190   -0.965950
     12          1           0        3.693114    3.257519   -1.453303
     13          6           0        3.728017    1.251222   -1.163414
     14          1           0        4.433191    1.085343   -1.778803
     15          6           0        3.151579    0.173260   -0.481646
     16          6           0        3.681212   -1.230568   -0.662164
     17          1           0        4.660534   -1.200515   -0.803778
     18          1           0        3.267339   -1.641502   -1.461973
     19          6           0        3.370270   -2.065677    0.552745
     20          1           0        3.845205   -1.704052    1.343096
     21          1           0        3.670403   -2.998006    0.409092
     22          7           0        1.907149   -2.032232    0.779856
     23          1           0        1.701383   -2.618055    1.470123
     24          6           0       -2.055932   -2.500556   -0.500292
     25          1           0       -2.023170   -3.348423   -1.011418
     26          1           0       -2.034532   -2.729375    0.463002
     27          6           0       -3.351232   -1.797544   -0.804786
     28          1           0       -4.095580   -2.277693   -0.362848
     29          1           0       -3.512125   -1.815906   -1.781440
     30          6           0       -3.324541   -0.374454   -0.330510
     31          6           0       -2.153686    1.570991    0.456349
     32          6           0       -2.128951    0.243174    0.046023
     33          7           0       -0.870567   -1.710023   -0.824181
     34          6           0       -4.515019    0.375808   -0.304515
     35          1           0       -5.332693   -0.036408   -0.559667
     36          6           0       -4.515852    1.698773    0.085917
     37          1           0       -5.326530    2.194890    0.088077
     38          6           0       -3.328804    2.304145    0.475535
     39          1           0       -3.322887    3.213396    0.753030
     40          1           0       -1.343873    1.985501    0.730144
     41          1           0       -0.411491   -1.418140    1.739223
     42          1           0        1.990415    3.678130    0.106269
     43          1           0       -0.964118   -1.493743   -1.739610
 ---------------------------------------------------------------------

 SCF Done:  E(RPBE1PBE) =  -844.957612433     A.U. after   14 cycles

 The electronic state is 1-A.
 Alpha  occ. eigenvalues --  -14.35113 -14.35027 -10.24741 -10.24072 -10.23358
 Alpha  occ. eigenvalues --  -10.23314 -10.23161 -10.22640 -10.22415 -10.21949
 Alpha  occ. eigenvalues --  -10.21533 -10.21381 -10.21305 -10.21249 -10.21172
 Alpha  occ. eigenvalues --  -10.21150 -10.21073 -10.21059 -10.20468 -10.20249
 Alpha  occ. eigenvalues --  -10.20192  -0.93730  -0.92787  -0.87248  -0.86895
 Alpha  occ. eigenvalues --   -0.82259  -0.80271  -0.78924  -0.77698  -0.75998
 Alpha  occ. eigenvalues --   -0.74906  -0.72756  -0.67172  -0.65714  -0.65311
 Alpha  occ. eigenvalues --   -0.64176  -0.62753  -0.61737  -0.58564  -0.57530
 Alpha  occ. eigenvalues --   -0.54249  -0.53889  -0.52205  -0.51213  -0.49962
 Alpha  occ. eigenvalues --   -0.48548  -0.47883  -0.47588  -0.46875  -0.46218
 Alpha  occ. eigenvalues --   -0.45607  -0.44475  -0.43437  -0.43058  -0.41902
 Alpha  occ. eigenvalues --   -0.41043  -0.40706  -0.40126  -0.39464  -0.39014
 Alpha  occ. eigenvalues --   -0.38163  -0.37636  -0.36690  -0.36193  -0.35353
 Alpha  occ. eigenvalues --   -0.35164  -0.33661  -0.32934  -0.32641  -0.26038
 Alpha  occ. eigenvalues --   -0.25353  -0.24989  -0.24578  -0.23279  -0.20894
 Alpha virt. eigenvalues --   -0.00165   0.00046   0.00587   0.01344   0.07901
 Alpha virt. eigenvalues --    0.08819   0.09558   0.10206   0.11165   0.11385
 Alpha virt. eigenvalues --    0.12734   0.13501   0.13636   0.13731   0.14669

 Mulliken charges:
               1
     1  C    0.070037
     2  H   -0.006076
     3  C    0.218434
     4  H   -0.023238
     5  C    0.155116
     6  H   -0.019026
     7  C   -0.102142
     8  C    0.052300
     9  H   -0.097038
    10  C    0.085954
    11  C    0.092689
    12  H   -0.080543
    13  C    0.050419
    14  H   -0.100865
    15  C   -0.139850
    16  C    0.231432
    17  H   -0.022059
    18  H    0.002149
    19  C    0.171339
    20  H   -0.032572
    21  H   -0.024465
    22  N   -0.274702
    23  H    0.071252
    24  C    0.210072
    25  H   -0.021162
    26  H   -0.021079
    27  C    0.138896
    28  H   -0.013679
    29  H   -0.003483
    30  C   -0.130899
    31  C    0.069459
    32  C   -0.055218
    33  N   -0.240041
    34  C    0.050296
    35  H   -0.101921
    36  C    0.091871
    37  H   -0.080295
    38  C    0.089448
    39  H   -0.084017
    40  H   -0.128890
    41  H   -0.044937
    42  H   -0.081140
    43  H    0.078174
 Sum of Mulliken charges =  -0.00000

 Dipole moment (field-independent basis, Debye):
    X=              0.1371    Y=             -0.4879    Z=              0.4803  Tot=              0.6982
 Quadrupole moment (field-independent basis, Debye-Ang):
   XX=           -115.5735   YY=           -116.9985   ZZ=           -119.9999
   XY=              0.1787   XZ=              0.8705   YZ=             -1.0453

  Exact polarizability:     218.651      -7.450     209.059     -12.225       4.174     133.033
 Approx polarizability:     295.113      -8.859     320.916     -24.058      12.936     216.940

 Summary of Natural Population Analysis:

                                       Natural Population
                Natural  -----------------------------------------------
    Atom  No    Charge         Core      Valence    Rydberg      Total
 -----------------------------------------------------------------------
      C    1   -0.01740      1.99894     3.99550    0.02297     6.01740
      H    2    0.21561      0.00000     0.77974    0.00464     0.78439
      C    3   -0.38216      1.99903     4.36497    0.01816     6.38216
      H    4    0.20063      0.00000     0.79618    0.00319     0.79937
      C    5   -0.00329      1.99897     3.98537    0.01895     6.00329
      H    6    0.18640      0.00000     0.80873    0.00487     0.81360
      C    7   -0.05214      1.99890     4.03653    0.01670     6.05214
      C    8   -0.18703      1.99900     4.17293    0.01510     6.18703
      H    9    0.17815      0.00000     0.81856    0.00329     0.82185
      C   10   -0.17330      1.99910     4.15983    0.01437     6.17330
      C   11   -0.17548      1.99910     4.16225    0.01412     6.17548
      H   12    0.17860      0.00000     0.81842    0.00297     0.82140
      C   13   -0.17448      1.99900     4.16048    0.01500     6.17448
      H   14    0.17943      0.00000     0.81747    0.00310     0.82057
      C   15   -0.01828      1.99891     4.00306    0.01631     6.01828
      C   16   -0.39649      1.99907     4.38366    0.01376     6.39649
      H   17    0.20219      0.00000     0.79420    0.00361     0.79781
      H   18    0.21367      0.00000     0.78153    0.00480     0.78633
      C   19   -0.15104      1.99911     4.13691    0.01502     6.15104
      H   20    0.15749      0.00000     0.83714    0.00538     0.84251
      H   21    0.19041      0.00000     0.80673    0.00286     0.80959
      N   22   -0.68537      1.99940     5.66827    0.01770     7.68537
      H   23    0.33867      0.00000     0.65516    0.00617     0.66133
      C   24   -0.15556      1.99913     4.13947    0.01695     6.15556
      H   25    0.18991      0.00000     0.80718    0.00291     0.81009
      H   26    0.17610      0.00000     0.82003    0.00387     0.82390
      C   27   -0.41560      1.99906     4.40398    0.01256     6.41560
      H   28    0.20814      0.00000     0.78764    0.00422     0.79186
      H   29    0.20139      0.00000     0.79441    0.00420     0.79861
      C   30   -0.02821      1.99892     4.01331    0.01597     6.02821
      C   31   -0.17685      1.99899     4.16326    0.01461     6.17685
      C   32   -0.05539      1.99888     4.03937    0.01713     6.05539
      N   33   -0.67454      1.99943     5.65762    0.01749     7.67454
      C   34   -0.17401      1.99901     4.15988    0.01511     6.17401
      H   35    0.17815      0.00000     0.81875    0.00310     0.82185
      C   36   -0.17774      1.99911     4.16459    0.01404     6.17774
      H   37    0.17745      0.00000     0.81954    0.00301     0.82255
      C   38   -0.17502      1.99911     4.16166    0.01425     6.17502
      H   39    0.17733      0.00000     0.81968    0.00299     0.82267
      H   40    0.17614      0.00000     0.82040    0.00346     0.82386
      H   41    0.20544      0.00000     0.79121    0.00335     0.79456
      H   42    0.17762      0.00000     0.81938    0.00301     0.82238
      H   43    0.34046      0.00000     0.65321    0.00633     0.65954
 =======================================================================
   * Total *   -0.00000     41.98018   107.59821    0.42161   150.00000

 ******   30 imaginary frequencies (negative Signs) ******

                      1                      2                      3
                      A                      A                      A
 Frequencies --  -1259.0790             -1255.7577             -1155.5824
 Red. masses --      1.0753                 1.0842                 1.0315
 Frc consts  --      1.0043                 1.0073                 0.8115
 IR Inten    --     44.8482                80.8914                 0.4978

                      4                      5                      6
                      A                      A                      A
 Frequencies --  -1154.3232             -1066.8909             -1065.3131
 Red. masses --      1.0372                 1.0170                 1.0189
 Frc consts  --      0.8142                 0.6820                 0.6813
 IR Inten    --      0.1046                 0.4440                 0.5598

                      7                      8                      9
                      A                      A                      A
 Frequencies --   -987.3848              -972.3812              -970.6521
 Red. masses --      1.1096                 1.0273                 1.0263
 Frc consts  --      0.6374                 0.5723                 0.5697
 IR Inten    --     86.1479                 1.4895                 0.0826

                     10                     11                     12
                      A                      A                      A
 Frequencies --   -938.6434              -936.4879              -932.8182
 Red. masses --      1.0401                 1.0365                 1.0399
 Frc consts  --      0.5399                 0.5356                 0.5331
 IR Inten    --      2.7716                 4.0659                 5.9225

                     13                     14                     15
                      A                      A                      A
 Frequencies --   -880.0217              -852.1614              -770.8460
 Red. masses --      1.0505                 1.0515                 1.1187
 Frc consts  --      0.4793                 0.4499                 0.3917
 IR Inten    --      2.6506                 1.5721               100.3300

                     16                     17                     18
                      A                      A                      A
 Frequencies --   -656.2987              -654.0782              -601.9730
 Red. masses --      1.1222                 1.1225                 1.2494
 Frc consts  --      0.2848                 0.2829                 0.2668
 IR Inten    --      0.1771                 0.4894                 2.1163

                     19                     20                     21
                      A                      A                      A
 Frequencies --   -596.7457              -496.1289              -485.6335
 Red. masses --      1.2556                 1.2678                 1.2888
 Frc consts  --      0.2634                 0.1839                 0.1791
 IR Inten    --      1.9782                 4.7602                 6.4152

                     22                     23                     24
                      A                      A                      A
 Frequencies --   -394.5970              -386.9164              -344.6587
 Red. masses --      1.0865                 1.0849                 1.7182
 Frc consts  --      0.0997                 0.0957                 0.1203
 IR Inten    --      6.7322                21.6301                 0.9713

                     25                     26                     27
                      A                      A                      A
 Frequencies --   -329.9656              -268.3474              -212.4235
 Red. masses --      1.9646                 2.7071                 2.3342
 Frc consts  --      0.1260                 0.1149                 0.0621
 IR Inten    --      1.4596                 0.3559                 1.9399

                     28                     29                     30
                      A                      A                      A
 Frequencies --   -141.6926              -104.9187               -63.2112
 Red. masses --      3.0427                 2.7461                 2.5567
 Frc consts  --      0.0360                 0.0178                 0.0060
 IR Inten    --      0.3278                 0.2801                 5.5811

                     31                     32                     33
                      A                      A                      A
 Frequencies --     68.5523               160.7975               189.1365
 Red. masses --      4.2320                 3.9595                 3.8128
 Frc consts  --      0.0117                 0.0603                 0.0804
 IR Inten    --      0.2473                 3.5661                 1.4611

                     34                     35                     36
                      A                      A                      A
 Frequencies --    243.8331               270.7504               321.6588
 Red. masses --      4.2122                 2.4652                 2.3464
 Frc consts  --      0.1476                 0.1065                 0.1430
 IR Inten    --      1.9553                 0.4006                 6.5043

                     37                     38                     39
                      A                      A                      A
 Frequencies --    375.5051               404.5510               421.3515
 Red. masses --      2.1697                 2.6773                 2.9604
 Frc consts  --      0.1803                 0.2582                 0.3097
 IR Inten    --      4.6478                 0.4102                 0.2001

                     40                     41                     42
                      A                      A                      A
 Frequencies --    451.3022               493.5868               501.4694
 Red. masses --      3.8595                 3.4952                 3.1849
 Frc consts  --      0.4631                 0.5017                 0.4719
 IR Inten    --      0.7732                 1.4211                 0.6095

                     43                     44                     45
                      A                      A                      A
 Frequencies --    509.6912               530.3968               537.9414
 Red. masses --      3.3903                 2.3740                 1.9972
 Frc consts  --      0.5189                 0.3935                 0.3405
 IR Inten    --      0.6439                 0.2083                 2.1301

                     46                     47                     48
                      A                      A                      A
 Frequencies --    548.8368               570.7231               625.5065
 Red. masses --      2.0071                 1.7557                 1.7267
 Frc consts  --      0.3562                 0.3369                 0.3980
 IR Inten    --      1.0156                 2.3954                17.2038

                     49                     50                     51
                      A                      A                      A
 Frequencies --    639.6804               661.8013               693.7714
 Red. masses --      2.5334                 2.8993                 4.0656
 Frc consts  --      0.6108                 0.7482                 1.1530
 IR Inten    --      1.7600                 5.2788                 1.0301

                     52                     53                     54
                      A                      A                      A
 Frequencies --    707.3671               735.8981               740.3766
 Red. masses --      4.5421                 2.3910                 2.4897
 Frc consts  --      1.3390                 0.7629                 0.8041
 IR Inten    --      0.3940                 3.0039                 6.8596

                     55                     56                     57
                      A                      A                      A
 Frequencies --    763.4679               776.8789               787.2455
 Red. masses --      2.0929                 1.9736                 2.2073
 Frc consts  --      0.7188                 0.7018                 0.8060
 IR Inten    --      4.7484                 0.7753                 0.5648

                     58                     59                     60
                      A                      A                      A
 Frequencies --    792.5168               810.8672               816.6537
 Red. masses --      4.0576                 2.5124                 2.6545
 Frc consts  --      1.5015                 0.9733                 1.0431
 IR Inten    --      6.8959                 1.4868                 0.2479

                     61                     62                     63
                      A                      A                      A
 Frequencies --    860.4069               873.4491               887.7660
 Red. masses --      2.9421                 1.9063                 2.5607
 Frc consts  --      1.2833                 0.8569                 1.1891
 IR Inten    --      0.4531                 4.5978                 9.1700

                     64                     65                     66
                      A                      A                      A
 Frequencies --    892.9650               913.2274               921.9676
 Red. masses --      2.4001                 2.5859                 2.6147
 Frc consts  --      1.1276                 1.2706                 1.3095
 IR Inten    --      0.7715                 1.1352                 1.5239

                     67                     68                     69
                      A                      A                      A
 Frequencies --    938.9239               956.9053               965.7802
 Red. masses --      2.3253                 2.9849                 1.9591
 Frc consts  --      1.2078                 1.6103                 1.0766
 IR Inten    --      4.3941                15.5880                 3.6595

                     70                     71                     72
                      A                      A                      A
 Frequencies --    973.4308               982.6733              1004.6968
 Red. masses --      2.4928                 2.4136                 2.5481
 Frc consts  --      1.3917                 1.3732                 1.5154
 IR Inten    --      0.1393                 0.4901                 7.6208

                     73                     74                     75
                      A                      A                      A
 Frequencies --   1016.6890              1051.1560              1077.9689
 Red. masses --      2.3250                 2.0299                 1.4058
 Frc consts  --      1.4160                 1.3214                 0.9625
 IR Inten    --      4.7441                 2.8480                20.4469

                     76                     77                     78
                      A                      A                      A
 Frequencies --   1083.9543              1091.0730              1096.2388
 Red. masses --      1.2912                 1.1992                 2.8246
 Frc consts  --      0.8938                 0.8411                 2.0000
 IR Inten    --     15.0309                19.0719                10.4977

                     79                     80                     81
                      A                      A                      A
 Frequencies --   1106.7862              1119.4207              1141.8166
 Red. masses --      2.8434                 1.9152                 1.5506
 Frc consts  --      2.0522                 1.4140                 1.1911
 IR Inten    --      0.3851                 6.2526                 3.0840

                     82                     83                     84
                      A                      A                      A
 Frequencies --   1143.9742              1182.2908              1190.0852
 Red. masses --      1.7565                 2.3309                 3.6668
 Frc consts  --      1.3544                 1.9196                 3.0598
 IR Inten    --     13.1967                24.0383                 3.5798

                     85                     86                     87
                      A                      A                      A
 Frequencies --   1193.2628              1216.1394              1223.4129
 Red. masses --      3.1011                 3.7266                 2.8485
 Frc consts  --      2.6016                 3.2474                 2.5119
 IR Inten    --      5.0175                 7.4032                25.1250

                     88                     89                     90
                      A                      A                      A
 Frequencies --   1242.7123              1250.4316              1258.0370
 Red. masses --      6.3300                 3.2965                 6.1649
 Frc consts  --      5.7597                 3.0369                 5.7486
 IR Inten    --      2.2228                13.2498                 3.6921

                     91                     92                     93
                      A                      A                      A
 Frequencies --   1274.5738              1392.2394              1407.3065
 Red. masses --      5.3383                 9.3992                 9.3500
 Frc consts  --      5.1095                10.7342                10.9103
 IR Inten    --      1.0829                 0.2996                 0.8324

                     94                     95                     96
                      A                      A                      A
 Frequencies --   1436.9075              1438.8739              1456.7894
 Red. masses --      8.8565                 8.7975                 8.7245
 Frc consts  --     10.7738                10.7314                10.9090
 IR Inten    --      3.4510                 3.6858                 8.9298

                     97                     98                     99
                      A                      A                      A
 Frequencies --   1466.7665              1650.3860              1662.8611
 Red. masses --      8.5993                10.6235                10.2595
 Frc consts  --     10.9002                17.0486                16.7142
 IR Inten    --      9.7125                 3.5204                 3.6843

                    100                    101                    102
                      A                      A                      A
 Frequencies --   1675.1587              1681.4266              4092.0153
 Red. masses --     10.8550                10.4689                 1.0862
 Frc consts  --     17.9470                17.4384                10.7157
 IR Inten    --      6.4699                 8.1285                27.4513

                    103                    104                    105
                      A                      A                      A
 Frequencies --   4115.4704              4172.8360              4180.2854
 Red. masses --      1.0869                 1.0598                 1.0603
 Frc consts  --     10.8463                10.8728                10.9167
 IR Inten    --      1.9295                46.8047                14.4546

                    106                    107                    108
                      A                      A                      A
 Frequencies --   4185.0143              4190.1480              4191.6712
 Red. masses --      1.0611                 1.0610                 1.0606
 Frc consts  --     10.9493                10.9753                10.9796
 IR Inten    --     19.4678                10.0336                10.4067

                    109                    110                    111
                      A                      A                      A
 Frequencies --   4288.7308              4288.8334              4298.2216
 Red. masses --      1.1093                 1.1092                 1.1082
 Frc consts  --     12.0209                12.0209                12.0629
 IR Inten    --     10.4246                 8.4322                 7.6690

                    112                    113                    114
                      A                      A                      A
 Frequencies --   4299.2948              4302.8989              4486.9804
 Red. masses --      1.1073                 1.1083                 1.0750
 Frc consts  --     12.0595                12.0897                12.7521
 IR Inten    --      6.0910                 5.6039                 2.7198

                    115                    116                    117
                      A                      A                      A
 Frequencies --   4732.2128              4752.9659              4755.5841
 Red. masses --      1.0756                 1.0865                 1.0871
 Frc consts  --     14.1918                14.4618                14.4850
 IR Inten    --      5.5062                 0.6159                 1.2289

                    118                    119                    120
                      A                      A                      A
 Frequencies --   4758.4978              4760.7143              4765.6478
 Red. masses --      1.0882                 1.0879                 1.0902
 Frc consts  --     14.5176                14.5277                14.5878
 IR Inten    --      0.1917                 0.5276                 2.5034

                    121                    122                    123
                      A                      A                      A
 Frequencies --   4769.3091              4772.6001              4777.3201
 Red. masses --      1.0902                 1.0930                 1.0929
 Frc consts  --     14.6112                14.6680                14.6966
 IR Inten    --      1.6540                 1.4698                 0.8825

 - Thermochemistry -
 -------------------
 Temperature   298.150 Kelvin.  Pressure   1.00000 Atm.
 Atom     1 has atomic number  6 and mass  12.00000

 Molecular mass:   278.17830 amu.
 Principal axes and moments of inertia in atomic units:
                           1         2         3
     Eigenvalues --  3267.311978513.83408**********
           X            1.00000  -0.00186   0.00058
           Y            0.00185   1.00000   0.00255
           Z           -0.00059  -0.00255   1.00000
 This molecule is an asymmetric top.
 Rotational symmetry number  1.
 Warning -- assumption of classical behavior for rotation
           may cause significant error
 Rotational temperatures (Kelvin)      0.02651     0.01017     0.00812
 Rotational constants (GHZ):           0.55236     0.21198     0.16923
   30 imaginary frequencies ignored.
 Zero-point vibrational energy     971907.8 (Joules/Mol)
                                  232.29154 (Kcal/Mol)
 Warning -- explicit consideration of  17 degrees of freedom as
           vibrations may cause significant error
 Vibrational temperatures:     98.63   231.35   272.13   350.82   389.55
          (Kelvin)            462.80   540.27   582.06   606.23   649.32
                              710.16   721.50   733.33   763.12   773.98
                              789.65   821.14   899.96   920.36   952.18
                              998.18  1017.74  1058.79  1065.24  1098.46
                             1117.76  1132.67  1140.25  1166.66  1174.98
                             1237.93  1256.70  1277.30  1284.78  1313.93
                             1326.51  1350.90  1376.77  1389.54  1400.55
                             1413.85  1445.53  1462.79  1512.38  1550.96
                             1559.57  1569.81  1577.24  1592.42  1610.60
                             1642.82  1645.92  1701.05  1712.27  1716.84
                             1749.75  1760.22  1787.99  1799.09  1810.03
                             1833.83  2003.12  2024.80  2067.39  2070.22
                             2096.00  2110.35  2374.54  2392.49  2410.18
                             2419.20  5887.50  5921.24  6003.78  6014.50
                             6021.30  6028.69  6030.88  6170.53  6170.67
                             6184.18  6185.73  6190.91  6455.76  6808.60
                             6838.46  6842.22  6846.42  6849.61  6856.70
                             6861.97  6866.71  6873.50

 Zero-point correction=                           0.370180 (Hartree/Particle)
 Thermal correction to Energy=                    0.381338
 Thermal correction to Enthalpy=                  0.382282
 Thermal correction to Gibbs Free Energy=         0.332634
 Sum of electronic and zero-point Energies=           -844.587432
 Sum of electronic and thermal Energies=              -844.576275
 Sum of electronic and thermal Enthalpies=            -844.575330
 Sum of electronic and thermal Free Energies=         -844.624978

                     E (Thermal)             CV                S
                      KCal/Mol        Cal/Mol-Kelvin    Cal/Mol-Kelvin
 Total                  239.293             51.753            104.493
 Electronic               0.000              0.000              0.000
 Translational            0.889              2.981             42.768
 Rotational               0.889              2.981             34.050
 Vibrational            237.516             45.792             27.676
 Vibration     1          0.598              1.969              4.194
 Vibration     2          0.622              1.890              2.540
 Vibration     3          0.633              1.855              2.236
 Vibration     4          0.659              1.773              1.775
 Vibration     5          0.674              1.727              1.591
 Vibration     6          0.707              1.632              1.302
 Vibration     7          0.746              1.522              1.057
 Vibration     8          0.770              1.460              0.946
 Vibration     9          0.784              1.424              0.887
 Vibration    10          0.810              1.358              0.792
 Vibration    11          0.849              1.264              0.674
 Vibration    12          0.857              1.247              0.654
 Vibration    13          0.865              1.229              0.634
 Vibration    14          0.885              1.183              0.586
 Vibration    15          0.893              1.166              0.570
 Vibration    16          0.904              1.142              0.547
 Vibration    17          0.927              1.095              0.503

 1\1\GINC-JST195\Freq\RPBE1PBE\def2SVP\C19H22N2\LAPLAZA\04-Mar-2023\0\\
 #p pop=(regular,nbo,savenbos) freq=noraman def2svp empiricaldispersion
 =gd3bj output=wfx pbe1pbe\\ASOXIQ_Complex_0_Ligand_0_NN_Cu_oriented\\0
 ,1\C,-2.28147438,1.92428541,0.3230205\H,-2.33530144,1.76690871,1.30972
 231\C,-3.06553447,0.76868156,-0.32716825\H,-4.02707148,1.00563078,-0.3
 273081\C,-2.90721391,-0.61135528,0.34004534\H,-3.60589031,-1.20622431,
 -0.05812841\C,-3.14386557,-0.59846162,1.84207124\C,-4.2835808,0.044732
 78,2.33654533\H,-4.87741408,0.47443537,1.73208917\C,-4.55804138,0.0647

 Normal termination of Gaussian 16 at Sat Mar  4 12:56:28 2023.
