 Gaussian 16, Revision C.01,
 Gaussian 16:  ES64L-G16RevC.01  3-Jul-2019

 ----------------------------------------------------------------------
 #p pop=(regular,nbo,savenbos) freq=noraman def2svp empiricaldispersion
 =gd3bj output=wfx pbe1pbe
 ----------------------------------------------------------------------

 ----------------------------------------
 ASUBOF_Complex_0_Ligand_2_NN_Cu_oriented
 ----------------------------------------
 Symbolic Z-matrix:
 Charge =  0 Multiplicity = 1

                         Standard orientation:
 ---------------------------------------------------------------------
 Center     Atomic      Atomic             Coordinates (Angstroms)
 Number     Number       Type             X           Y           Z
 ---------------------------------------------------------------------
      1          6           0       -0.613816    1.752190    0.240263
      2          1           0       -1.013137    2.640311    0.128524
      3          7           0        1.232359    0.322864   -0.719052
      4          6           0        2.437482    0.427463   -1.612063
      5          1           0        2.955220    1.207838   -1.357414
      6          1           0        2.144230    0.552259   -2.529060
      7          6           0        3.319137   -0.803456   -1.533579
      8          1           0        2.823658   -1.580457   -1.834730
      9          1           0        4.089418   -0.691730   -2.112475
     10          6           0        3.778004   -1.011414   -0.109549
     11          1           0        4.254253   -1.855088   -0.049726
     12          1           0        4.396552   -0.303232    0.130418
     13          6           0        2.637780   -1.021507    0.872889
     14          1           0        2.987563   -1.030750    1.777597
     15          1           0        2.106720   -1.822625    0.746785
     16          6           0        1.756736    0.208439    0.681921
     17          1           0        2.332184    0.987578    0.828326
     18          6           0        0.422033    1.585721   -0.842242
     19          1           0       -0.023312    1.588095   -1.702994
     20          1           0        1.023529    2.346061   -0.818752
     21          7           0       -1.230835   -0.683381    0.337288
     22          6           0       -2.394535   -1.627922    0.465113
     23          1           0       -2.060458   -2.532644    0.559503
     24          1           0       -2.894064   -1.409287    1.267180
     25          6           0       -2.639417    0.794553   -1.071225
     26          1           0       -2.959095    1.703484   -1.185203
     27          6           0       -1.759439    0.718187    0.175536
     28          1           0       -2.341003    0.891533    0.943806
     29          6           0        0.632270    0.297988    1.719891
     30          1           0        1.036867    0.207972    2.608254
     31          6           0       -0.423897   -0.762323    1.587034
     32          1           0        0.005734   -1.632023    1.623208
     33          1           0       -1.022194   -0.700767    2.347394
     34          6           0       -0.010950    1.697142    1.632671
     35          1           0       -0.697629    1.805210    2.310649
     36          6           0       -3.314422   -1.565401   -0.717299
     37          1           0       -4.066090   -2.160263   -0.569686
     38          1           0       -2.841087   -1.872743   -1.506573
     39          6           0       -3.832831   -0.150550   -0.959999
     40          1           0       -4.403889    0.122887   -0.226514
     41          1           0       -4.351462   -0.125475   -1.778648
     42          1           0       -2.114008    0.560622   -1.852590
     43          1           0        0.656007    2.392201    1.748890
 ---------------------------------------------------------------------

 SCF Done:  E(RPBE1PBE) =  -695.127390273     A.U. after   13 cycles

 The electronic state is 1-A.
 Alpha  occ. eigenvalues --  -14.35851 -14.35649 -10.22707 -10.22528 -10.21218
 Alpha  occ. eigenvalues --  -10.20942 -10.20926 -10.20894 -10.20876 -10.20807
 Alpha  occ. eigenvalues --  -10.19174 -10.18878 -10.18558 -10.18531 -10.18512
 Alpha  occ. eigenvalues --  -10.18498 -10.18476  -0.93780  -0.91391  -0.83960
 Alpha  occ. eigenvalues --   -0.82973  -0.80920  -0.79317  -0.76052  -0.75371
 Alpha  occ. eigenvalues --   -0.71013  -0.66032  -0.65804  -0.65000  -0.63478
 Alpha  occ. eigenvalues --   -0.61923  -0.59271  -0.58554  -0.54981  -0.51382
 Alpha  occ. eigenvalues --   -0.50028  -0.49619  -0.48487  -0.47969  -0.47882
 Alpha  occ. eigenvalues --   -0.46599  -0.45630  -0.45543  -0.44327  -0.43687
 Alpha  occ. eigenvalues --   -0.42068  -0.40748  -0.40469  -0.39528  -0.38797
 Alpha  occ. eigenvalues --   -0.37712  -0.37680  -0.37156  -0.36234  -0.35879
 Alpha  occ. eigenvalues --   -0.34925  -0.34642  -0.33344  -0.33022  -0.31449
 Alpha  occ. eigenvalues --   -0.30160  -0.29537  -0.28670  -0.22288  -0.18880
 Alpha virt. eigenvalues --    0.07501   0.09285   0.09577   0.09788   0.11358
 Alpha virt. eigenvalues --    0.11711   0.12055   0.13078   0.14039   0.14868
 Alpha virt. eigenvalues --    0.14934   0.15336   0.16070   0.16319   0.17208

 Mulliken charges:
               1
     1  C   -0.136384
     2  H   -0.044291
     3  N   -0.455180
     4  C    0.223439
     5  H   -0.064063
     6  H   -0.037090
     7  C    0.115439
     8  H   -0.022768
     9  H   -0.032649
    10  C    0.067689
    11  H   -0.031576
    12  H   -0.040235
    13  C    0.203716
    14  H   -0.044006
    15  H   -0.031605
    16  C    0.051120
    17  H   -0.071006
    18  C    0.396819
    19  H   -0.048269
    20  H   -0.067658
    21  N   -0.462385
    22  C    0.238368
    23  H   -0.035737
    24  H   -0.064780
    25  C    0.182358
    26  H   -0.043618
    27  C    0.057917
    28  H   -0.070528
    29  C   -0.133468
    30  H   -0.047142
    31  C    0.393220
    32  H   -0.052483
    33  H   -0.072030
    34  C    0.254957
    35  H   -0.050548
    36  C    0.097572
    37  H   -0.033789
    38  H   -0.023846
    39  C    0.078274
    40  H   -0.038218
    41  H   -0.028941
    42  H   -0.026288
    43  H   -0.050307
 Sum of Mulliken charges =  -0.00000

 Dipole moment (field-independent basis, Debye):
    X=              0.0015    Y=              0.8037    Z=              0.7831  Tot=              1.1222
 Quadrupole moment (field-independent basis, Debye-Ang):
   XX=            -99.5628   YY=           -101.7228   ZZ=           -101.8675
   XY=              0.2467   XZ=             -0.1522   YZ=             -1.4083

  Exact polarizability:     165.334      -1.982     136.573       1.864      -2.425     135.815
 Approx polarizability:     200.022      -2.374     195.067       2.177      -2.597     193.760

 Summary of Natural Population Analysis:

                                       Natural Population
                Natural  -----------------------------------------------
    Atom  No    Charge         Core      Valence    Rydberg      Total
 -----------------------------------------------------------------------
      C    1   -0.21240      1.99901     4.19572    0.01767     6.21240
      H    2    0.20343      0.00000     0.79250    0.00407     0.79657
      N    3   -0.56150      1.99941     5.54736    0.01472     7.56150
      C    4   -0.14749      1.99902     4.13182    0.01665     6.14749
      H    5    0.14713      0.00000     0.84606    0.00681     0.85287
      H    6    0.18156      0.00000     0.81520    0.00324     0.81844
      C    7   -0.36165      1.99910     4.35027    0.01229     6.36165
      H    8    0.18509      0.00000     0.80974    0.00517     0.81491
      H    9    0.18881      0.00000     0.80785    0.00335     0.81119
      C   10   -0.35755      1.99909     4.34570    0.01276     6.35755
      H   11    0.18833      0.00000     0.80807    0.00360     0.81167
      H   12    0.17561      0.00000     0.81978    0.00461     0.82439
      C   13   -0.36872      1.99907     4.35479    0.01486     6.36872
      H   14    0.19094      0.00000     0.80554    0.00352     0.80906
      H   15    0.18753      0.00000     0.80766    0.00481     0.81247
      C   16    0.00151      1.99894     3.97844    0.02111     5.99849
      H   17    0.15449      0.00000     0.83620    0.00931     0.84551
      C   18   -0.15169      1.99899     4.13221    0.02049     6.15169
      H   19    0.18679      0.00000     0.81005    0.00317     0.81321
      H   20    0.16016      0.00000     0.83407    0.00577     0.83984
      N   21   -0.56320      1.99941     5.54913    0.01466     7.56320
      C   22   -0.14486      1.99903     4.12948    0.01636     6.14486
      H   23    0.18236      0.00000     0.81435    0.00329     0.81764
      H   24    0.14729      0.00000     0.84590    0.00681     0.85271
      C   25   -0.37195      1.99906     4.35794    0.01495     6.37195
      H   26    0.18867      0.00000     0.80775    0.00358     0.81133
      C   27    0.00639      1.99896     3.97346    0.02119     5.99361
      H   28    0.15431      0.00000     0.83659    0.00910     0.84569
      C   29   -0.20876      1.99901     4.19177    0.01798     6.20876
      H   30    0.20290      0.00000     0.79318    0.00392     0.79710
      C   31   -0.15589      1.99899     4.13619    0.02070     6.15589
      H   32    0.18651      0.00000     0.81021    0.00329     0.81349
      H   33    0.15886      0.00000     0.83517    0.00597     0.84114
      C   34   -0.36163      1.99908     4.34495    0.01760     6.36163
      H   35    0.19028      0.00000     0.80583    0.00389     0.80972
      C   36   -0.36529      1.99909     4.35382    0.01238     6.36529
      H   37    0.18862      0.00000     0.80797    0.00341     0.81138
      H   38    0.18534      0.00000     0.80953    0.00514     0.81466
      C   39   -0.35203      1.99910     4.34041    0.01252     6.35203
      H   40    0.17474      0.00000     0.82080    0.00446     0.82526
      H   41    0.18759      0.00000     0.80906    0.00335     0.81241
      H   42    0.18978      0.00000     0.80541    0.00480     0.81022
      H   43    0.18960      0.00000     0.80654    0.00386     0.81040
 =======================================================================
   * Total *   -0.00000     33.98437    95.61445    0.40118   130.00000

 ******   30 imaginary frequencies (negative Signs) ******

                      1                      2                      3
                      A                      A                      A
 Frequencies --  -1115.9382             -1114.2875             -1091.1251
 Red. masses --      1.0403                 1.0515                 1.0201
 Frc consts  --      0.7633                 0.7692                 0.7155
 IR Inten    --      3.4390                 3.0786                 1.2761

                      4                      5                      6
                      A                      A                      A
 Frequencies --  -1083.9825             -1064.9054             -1062.4134
 Red. masses --      1.0298                 1.0392                 1.0403
 Frc consts  --      0.7129                 0.6943                 0.6919
 IR Inten    --      1.0071                 1.0764                 5.9485

                      7                      8                      9
                      A                      A                      A
 Frequencies --  -1056.2104             -1054.4361             -1044.2993
 Red. masses --      1.0296                 1.0236                 1.0294
 Frc consts  --      0.6767                 0.6705                 0.6614
 IR Inten    --      2.3675                 1.6134                 2.0299

                     10                     11                     12
                      A                      A                      A
 Frequencies --  -1038.7455             -1029.1407              -597.6580
 Red. masses --      1.0310                 1.0336                 1.1614
 Frc consts  --      0.6554                 0.6450                 0.2444
 IR Inten    --      1.3757                 1.7226                 0.4901

                     13                     14                     15
                      A                      A                      A
 Frequencies --   -583.8490              -565.6926              -560.3674
 Red. masses --      1.2631                 1.3269                 1.2566
 Frc consts  --      0.2537                 0.2502                 0.2325
 IR Inten    --      0.2348                 0.2413                 0.2354

                     16                     17                     18
                      A                      A                      A
 Frequencies --   -554.6786              -538.3394              -532.9499
 Red. masses --      1.2685                 1.4987                 1.2738
 Frc consts  --      0.2299                 0.2559                 0.2132
 IR Inten    --      1.1019                 0.5968                 0.1913

                     19                     20                     21
                      A                      A                      A
 Frequencies --   -528.0375              -515.7437              -502.0293
 Red. masses --      1.4546                 1.3021                 1.3470
 Frc consts  --      0.2390                 0.2041                 0.2000
 IR Inten    --      0.4709                 1.4810                 0.9285

                     22                     23                     24
                      A                      A                      A
 Frequencies --   -433.2423              -425.5020              -423.3449
 Red. masses --      1.4768                 1.4347                 1.5852
 Frc consts  --      0.1633                 0.1530                 0.1674
 IR Inten    --      0.6500                 3.9471                 0.4416

                     25                     26                     27
                      A                      A                      A
 Frequencies --   -417.6739              -380.9231              -370.6619
 Red. masses --      1.5836                 1.6860                 1.5045
 Frc consts  --      0.1628                 0.1441                 0.1218
 IR Inten    --      0.4609                 0.0766                 3.2354

                     28                     29                     30
                      A                      A                      A
 Frequencies --   -298.8902              -257.6440              -228.8639
 Red. masses --      2.0432                 1.4032                 1.2983
 Frc consts  --      0.1075                 0.0549                 0.0401
 IR Inten    --      0.1290                 0.9836                 0.8457

                     31                     32                     33
                      A                      A                      A
 Frequencies --    127.5286               173.8205               186.9572
 Red. masses --      1.2822                 1.4720                 1.2516
 Frc consts  --      0.0123                 0.0262                 0.0258
 IR Inten    --      3.9573                 1.4328                 0.9651

                     34                     35                     36
                      A                      A                      A
 Frequencies --    245.3353               338.3736               369.8258
 Red. masses --      1.1865                 1.2443                 1.4176
 Frc consts  --      0.0421                 0.0839                 0.1142
 IR Inten    --      1.1112                 5.4714                11.0905

                     37                     38                     39
                      A                      A                      A
 Frequencies --    421.4285               440.3774               472.3292
 Red. masses --      2.6601                 1.4899                 1.2131
 Frc consts  --      0.2784                 0.1702                 0.1595
 IR Inten    --      0.2198                 6.9642                 3.0716

                     40                     41                     42
                      A                      A                      A
 Frequencies --    507.8931               516.7675               535.8076
 Red. masses --      1.3802                 1.3987                 1.4414
 Frc consts  --      0.2098                 0.2201                 0.2438
 IR Inten    --      9.6300                 0.4545                 7.4958

                     43                     44                     45
                      A                      A                      A
 Frequencies --    568.1235               594.2647               626.1479
 Red. masses --      2.1975                 1.7981                 1.8048
 Frc consts  --      0.4179                 0.3741                 0.4169
 IR Inten    --      0.4779                 0.2744                 3.9578

                     46                     47                     48
                      A                      A                      A
 Frequencies --    656.5170               667.8866               676.5918
 Red. masses --      2.2487                 2.5640                 2.5399
 Frc consts  --      0.5710                 0.6739                 0.6851
 IR Inten    --      0.6014                 2.3698                 0.7688

                     49                     50                     51
                      A                      A                      A
 Frequencies --    707.6702               710.4189               730.6496
 Red. masses --      2.4822                 2.0586                 1.6956
 Frc consts  --      0.7324                 0.6122                 0.5333
 IR Inten    --      0.0769                 1.2705                 0.1987

                     52                     53                     54
                      A                      A                      A
 Frequencies --    754.9923               793.6591               803.5013
 Red. masses --      1.8448                 2.5004                 2.1993
 Frc consts  --      0.6195                 0.9280                 0.8366
 IR Inten    --      1.3527                 4.7322                 0.7831

                     55                     56                     57
                      A                      A                      A
 Frequencies --    813.7377               814.9255               834.4561
 Red. masses --      2.6682                 2.0168                 2.7528
 Frc consts  --      1.0409                 0.7891                 1.1294
 IR Inten    --      1.5060                 1.6361                 3.3617

                     58                     59                     60
                      A                      A                      A
 Frequencies --    845.4828               866.3347               872.4968
 Red. masses --      3.0146                 3.4499                 3.1582
 Frc consts  --      1.2697                 1.5256                 1.4165
 IR Inten    --      0.3219                 0.8068                 1.2040

                     61                     62                     63
                      A                      A                      A
 Frequencies --    889.5392               897.3652               907.8006
 Red. masses --      2.0960                 2.6092                 3.0080
 Frc consts  --      0.9772                 1.2379                 1.4605
 IR Inten    --      3.1891                 2.5284                 1.4413

                     64                     65                     66
                      A                      A                      A
 Frequencies --    922.5907               944.0715               956.0989
 Red. masses --      3.4869                 2.1596                 1.2313
 Frc consts  --      1.7487                 1.1340                 0.6631
 IR Inten    --      0.5588                 4.5963                 9.1765

                     67                     68                     69
                      A                      A                      A
 Frequencies --    956.9911               960.8085               965.0491
 Red. masses --      1.2302                 1.4991                 1.3459
 Frc consts  --      0.6638                 0.8154                 0.7385
 IR Inten    --      8.6880                 2.2291                25.9934

                     70                     71                     72
                      A                      A                      A
 Frequencies --    973.1169               978.0693               984.2875
 Red. masses --      1.4181                 1.2362                 1.5122
 Frc consts  --      0.7912                 0.6967                 0.8632
 IR Inten    --      9.2105                22.7520                 0.6732

                     73                     74                     75
                      A                      A                      A
 Frequencies --    990.4068               992.9273               995.8406
 Red. masses --      1.4805                 1.3949                 1.5260
 Frc consts  --      0.8556                 0.8103                 0.8916
 IR Inten    --      9.9213                 6.8186                 6.9105

                     76                     77                     78
                      A                      A                      A
 Frequencies --   1005.4433              1021.0541              1032.1758
 Red. masses --      1.3734                 1.8488                 1.4798
 Frc consts  --      0.8180                 1.1356                 0.9289
 IR Inten    --      1.4853                 0.4532                 6.2116

                     79                     80                     81
                      A                      A                      A
 Frequencies --   1070.1508              1077.5429              1085.0578
 Red. masses --      2.3089                 2.9184                 3.8496
 Frc consts  --      1.5580                 1.9965                 2.6704
 IR Inten    --     35.6367                22.5968                 6.8298

                     82                     83                     84
                      A                      A                      A
 Frequencies --   1088.6712              1108.6329              1115.6446
 Red. masses --      3.1360                 3.1788                 3.8945
 Frc consts  --      2.1899                 2.3019                 2.8560
 IR Inten    --     13.4237                15.1238                17.3707

                     85                     86                     87
                      A                      A                      A
 Frequencies --   1122.2130              1153.7778              1158.9393
 Red. masses --      3.6044                 3.7440                 3.6484
 Frc consts  --      2.6745                 2.9365                 2.8872
 IR Inten    --      3.6281                 0.5622                 5.6328

                     88                     89                     90
                      A                      A                      A
 Frequencies --   1177.7601              1185.6591              1198.5868
 Red. masses --      4.2392                 5.1582                 4.1470
 Frc consts  --      3.4646                 4.2724                 3.5102
 IR Inten    --      1.3080                12.8507                21.1825

                     91                     92                     93
                      A                      A                      A
 Frequencies --   1213.1518              1237.8777              1246.3243
 Red. masses --      4.6769                 5.8672                 5.8721
 Frc consts  --      4.0555                 5.2971                 5.3741
 IR Inten    --     18.2891                 1.7283                 4.0957

                     94                     95                     96
                      A                      A                      A
 Frequencies --   1257.7934              1263.6292              1295.0654
 Red. masses --      7.2691                 7.6853                 6.1382
 Frc consts  --      6.7756                 7.2302                 6.0656
 IR Inten    --      4.8325                 8.8258                 0.1611

                     97                     98                     99
                      A                      A                      A
 Frequencies --   1311.1151              4326.2970              4337.4327
 Red. masses --      7.0897                 1.0860                 1.0862
 Frc consts  --      7.1806                11.9761                12.0397
 IR Inten    --      1.2037                43.7184                40.5946

                    100                    101                    102
                      A                      A                      A
 Frequencies --   4351.7501              4352.0268              4401.3347
 Red. masses --      1.0865                 1.0872                 1.0595
 Frc consts  --     12.1229                12.1317                12.0927
 IR Inten    --     21.7610                 8.2177                37.4219

                    103                    104                    105
                      A                      A                      A
 Frequencies --   4405.9014              4409.3042              4409.6946
 Red. masses --      1.0598                 1.0603                 1.0593
 Frc consts  --     12.1214                12.1458                12.1362
 IR Inten    --     28.6895                22.7504                22.4018

                    106                    107                    108
                      A                      A                      A
 Frequencies --   4413.0095              4414.9911              4419.7586
 Red. masses --      1.0599                 1.0606                 1.0600
 Frc consts  --     12.1616                12.1802                12.1995
 IR Inten    --     50.1299                33.0237                18.0926

                    109                    110                    111
                      A                      A                      A
 Frequencies --   4421.8161              4425.1489              4427.3720
 Red. masses --      1.0607                 1.0601                 1.0609
 Frc consts  --     12.2190                12.2313                12.2518
 IR Inten    --     15.7568                18.5316                14.0597

                    112                    113                    114
                      A                      A                      A
 Frequencies --   4431.2828              4520.5993              4521.9638
 Red. masses --      1.0602                 1.1085                 1.1089
 Frc consts  --     12.2653                13.3464                13.3592
 IR Inten    --     22.6644                20.1419                18.0325

                    115                    116                    117
                      A                      A                      A
 Frequencies --   4527.0602              4532.6029              4536.9941
 Red. masses --      1.1084                 1.1100                 1.1083
 Frc consts  --     13.3844                13.4361                13.4414
 IR Inten    --      7.5585                12.0517                12.4126

                    118                    119                    120
                      A                      A                      A
 Frequencies --   4537.5651              4540.7007              4542.8709
 Red. masses --      1.1083                 1.1085                 1.1086
 Frc consts  --     13.4443                13.4659                13.4796
 IR Inten    --      4.4816                10.6312                10.2584

                    121                    122                    123
                      A                      A                      A
 Frequencies --   4547.5172              4549.8482              4555.0588
 Red. masses --      1.1085                 1.1087                 1.1091
 Frc consts  --     13.5059                13.5221                13.5590
 IR Inten    --      6.1765                11.6768                12.8617

 - Thermochemistry -
 -------------------
 Temperature   298.150 Kelvin.  Pressure   1.00000 Atm.
 Atom     1 has atomic number  6 and mass  12.00000

 Molecular mass:   234.20960 amu.
 Principal axes and moments of inertia in atomic units:
                           1         2         3
     Eigenvalues --  2054.680005459.866935481.10673
           X            1.00000  -0.00017   0.00069
           Y            0.00038   0.94523  -0.32639
           Z           -0.00060   0.32640   0.94523
 This molecule is an asymmetric top.
 Rotational symmetry number  1.
 Warning -- assumption of classical behavior for rotation
           may cause significant error
 Rotational temperatures (Kelvin)      0.04215     0.01586     0.01580
 Rotational constants (GHZ):           0.87836     0.33055     0.32927
   30 imaginary frequencies ignored.
 Zero-point vibrational energy    1036417.2 (Joules/Mol)
                                  247.70967 (Kcal/Mol)
 Warning -- explicit consideration of  14 degrees of freedom as
           vibrations may cause significant error
 Vibrational temperatures:    183.49   250.09   268.99   352.98   486.84
          (Kelvin)            532.10   606.34   633.60   679.58   730.74
                              743.51   770.91   817.40   855.01   900.89
                              944.58   960.94   973.46  1018.18  1022.13
                             1051.24  1086.27  1141.90  1156.06  1170.79
                             1172.50  1200.60  1216.46  1246.46  1255.33
                             1279.85  1291.11  1306.12  1327.40  1358.31
                             1375.61  1376.90  1382.39  1388.49  1400.10
                             1407.22  1416.17  1424.97  1428.60  1432.79
                             1446.61  1469.07  1485.07  1539.71  1550.34
                             1561.16  1566.35  1595.08  1605.16  1614.61
                             1660.03  1667.46  1694.53  1705.90  1724.50
                             1745.45  1781.03  1793.18  1809.68  1818.08
                             1863.31  1886.40  6224.58  6240.60  6261.20
                             6261.60  6332.54  6339.11  6344.01  6344.57
                             6349.34  6352.19  6359.05  6362.01  6366.80
                             6370.00  6375.63  6504.13  6506.10  6513.43
                             6521.40  6527.72  6528.54  6533.06  6536.18
                             6542.86  6546.22  6553.71

 Zero-point correction=                           0.394750 (Hartree/Particle)
 Thermal correction to Energy=                    0.405066
 Thermal correction to Enthalpy=                  0.406010
 Thermal correction to Gibbs Free Energy=         0.359170
 Sum of electronic and zero-point Energies=           -694.732640
 Sum of electronic and thermal Energies=              -694.722324
 Sum of electronic and thermal Enthalpies=            -694.721380
 Sum of electronic and thermal Free Energies=         -694.768220

                     E (Thermal)             CV                S
                      KCal/Mol        Cal/Mol-Kelvin    Cal/Mol-Kelvin
 Total                  254.183             49.831             98.584
 Electronic               0.000              0.000              0.000
 Translational            0.889              2.981             42.255
 Rotational               0.889              2.981             32.486
 Vibrational            252.405             43.870             23.843
 Vibration     1          0.611              1.926              2.983
 Vibration     2          0.627              1.875              2.394
 Vibration     3          0.632              1.858              2.258
 Vibration     4          0.660              1.770              1.764
 Vibration     5          0.719              1.599              1.220
 Vibration     6          0.742              1.534              1.081
 Vibration     7          0.784              1.424              0.887
 Vibration     8          0.800              1.382              0.825
 Vibration     9          0.829              1.311              0.731
 Vibration    10          0.863              1.233              0.639
 Vibration    11          0.872              1.213              0.618
 Vibration    12          0.891              1.171              0.574
 Vibration    13          0.924              1.100              0.508
 Vibration    14          0.952              1.044              0.460

 1\1\GINC-JST202\Freq\RPBE1PBE\def2SVP\C15H26N2\LAPLAZA\04-Mar-2023\0\\
 #p pop=(regular,nbo,savenbos) freq=noraman def2svp empiricaldispersion
 =gd3bj output=wfx pbe1pbe\\ASUBOF_Complex_0_Ligand_2_NN_Cu_oriented\\0
 ,1\C,2.85535716,-1.28580787,1.19594213\H,3.37627704,-1.50181318,1.9976
 1904\N,1.87729153,0.71037145,0.\C,1.94190132,2.21255214,0.00283351\H,2
 .87067784,2.49083505,0.04544596\H,1.49470621,2.54885143,0.79616497\C,1
 .29583817,2.8176013,-1.22808222\H,0.35480584,2.58554507,-1.2511444\H,1
 .36920527,3.78425888,-1.19451998\C,1.9801279,2.29760566,-2.47026561\H,

 Normal termination of Gaussian 16 at Sat Mar  4 12:58:10 2023.
