 Gaussian 16, Revision C.01,
 Gaussian 16:  ES64L-G16RevC.01  3-Jul-2019

 ----------------------------------------------------------------------
 #p pop=(regular,nbo,savenbos) freq=noraman def2svp empiricaldispersion
 =gd3bj output=wfx pbe1pbe
 ----------------------------------------------------------------------

 ----------------------------------------
 ATAVOG_Complex_1_Ligand_0_OO_Cu_oriented
 ----------------------------------------
 Symbolic Z-matrix:
 Charge = -1 Multiplicity = 1

                         Standard orientation:
 ---------------------------------------------------------------------
 Center     Atomic      Atomic             Coordinates (Angstroms)
 Number     Number       Type             X           Y           Z
 ---------------------------------------------------------------------
      1         14           0        1.837926    0.718029    0.238838
      2          8           0        0.276758   -0.134246   -1.752614
      3          6           0        0.160621    0.208532   -0.524614
      4          6           0        2.395152    2.191773   -0.703840
      5          6           0        1.601169    1.135408    2.045349
      6          6           0        2.996767   -0.717881    0.056570
      7          6           0        3.401974   -0.933143   -1.389388
      8          6           0        4.297441   -0.454640    0.840420
      9          6           0        2.424582   -1.979474    0.564711
     10          1           0        3.240133    2.491482   -0.359681
     11          1           0        1.746762    2.892887   -0.615344
     12          1           0        1.310552    0.352129    2.519326
     13          1           0        2.432511    1.441997    2.414869
     14          1           0        0.938575    1.824687    2.130328
     15          1           0        3.777053   -0.121903   -1.740344
     16          1           0        4.054554   -1.634971   -1.437597
     17          1           0        2.629672   -1.177049   -1.904049
     18          1           0        4.695930    0.362592    0.532969
     19          1           0        4.098050   -0.381820    1.776622
     20          1           0        4.907857   -1.182126    0.698215
     21          1           0        2.161053   -1.866668    1.479933
     22          1           0        1.658338   -2.218749    0.037459
     23          1           0        3.083718   -2.675989    0.505361
     24          8           0       -2.470222   -0.384547   -1.569532
     25          6           0       -2.271690   -0.026814   -0.381345
     26          6           0       -1.014715    0.239071    0.152656
     27          6           0       -3.505962    0.141850    0.480934
     28          6           0       -4.454269   -0.444938    0.396426
     29          6           0       -3.914998   -1.815558    0.752626
     30          6           0       -4.254056    1.602072   -0.006252
     31          1           0       -0.975716    0.464834    1.084352
     32          1           0       -3.082787   -0.055316    1.319443
     33          1           0       -4.813956   -0.419823   -0.493707
     34          1           0       -5.121233   -0.144718    1.019712
     35          1           0       -4.630269   -2.456857    0.722841
     36          1           0       -3.235098   -2.067004    0.123666
     37          1           0       -3.542170   -1.791596    1.636072
     38          1           0       -3.603202    2.307559   -0.013623
     39          1           0       -4.619808    1.494567   -0.887125
     40          1           0       -4.958150    1.821656    0.608414
     41          1           0        2.492297    1.960589   -1.630206
 ---------------------------------------------------------------------

 SCF Done:  E(RPBE1PBE) =  -948.334613927     A.U. after   15 cycles

 The electronic state is 1-A.
 Alpha  occ. eigenvalues --  -66.06516 -18.97548 -18.97212 -10.10500 -10.08976
 Alpha  occ. eigenvalues --  -10.08710 -10.07427 -10.05763 -10.05710 -10.05360
 Alpha  occ. eigenvalues --  -10.05020 -10.04905 -10.04646 -10.04407 -10.03429
 Alpha  occ. eigenvalues --  -10.00462  -5.15854  -3.49611  -3.49543  -3.49487
 Alpha  occ. eigenvalues --   -0.83716  -0.80437  -0.78178  -0.73072  -0.63340
 Alpha  occ. eigenvalues --   -0.63195  -0.62415  -0.61867  -0.60872  -0.59931
 Alpha  occ. eigenvalues --   -0.56533  -0.51776  -0.46920  -0.44005  -0.41744
 Alpha  occ. eigenvalues --   -0.39346  -0.36332  -0.35839  -0.35035  -0.34154
 Alpha  occ. eigenvalues --   -0.33490  -0.32537  -0.32328  -0.32081  -0.31584
 Alpha  occ. eigenvalues --   -0.31478  -0.31262  -0.30850  -0.30062  -0.29103
 Alpha  occ. eigenvalues --   -0.28466  -0.27869  -0.27260  -0.24507  -0.23856
 Alpha  occ. eigenvalues --   -0.22825  -0.21709  -0.21238  -0.18836  -0.18521
 Alpha  occ. eigenvalues --   -0.17802  -0.16778  -0.15307  -0.12206  -0.06642
 Alpha  occ. eigenvalues --   -0.03777  -0.02251
 Alpha virt. eigenvalues --    0.14878   0.17378   0.19784   0.21084   0.21289
 Alpha virt. eigenvalues --    0.22728   0.23081   0.23768   0.24739   0.25053
 Alpha virt. eigenvalues --    0.25555   0.25868   0.26377   0.27305   0.27590

 Mulliken charges:
               1
     1  Si   0.384464
     2  O   -0.394035
     3  C   -0.008979
     4  C   -0.074222
     5  C   -0.090331
     6  C   -0.655517
     7  C    0.309022
     8  C    0.268625
     9  C    0.315926
    10  H   -0.021787
    11  H   -0.001074
    12  H    0.001145
    13  H   -0.022316
    14  H    0.005462
    15  H   -0.058677
    16  H   -0.079793
    17  H   -0.018336
    18  H   -0.045930
    19  H   -0.048211
    20  H   -0.063836
    21  H   -0.054382
    22  H   -0.010223
    23  H   -0.074672
    24  O   -0.353889
    25  C    0.061635
    26  C   -0.105511
    27  C   -0.144453
    28  C    0.288247
    29  C    0.199135
    30  C    0.176372
    31  H   -0.131692
    32  H   -0.101461
    33  H   -0.090382
    34  H   -0.084773
    35  H   -0.084179
    36  H   -0.007162
    37  H   -0.058820
    38  H   -0.050579
    39  H   -0.028271
    40  H   -0.059085
    41  H    0.012544
 Sum of Mulliken charges =  -1.00000

 Dipole moment (field-independent basis, Debye):
    X=              3.9043    Y=              0.9010    Z=              5.7301  Tot=              6.9921
 Quadrupole moment (field-independent basis, Debye-Ang):
   XX=           -135.5036   YY=           -113.8834   ZZ=           -124.4230
   XY=             -2.1902   XZ=             -6.6455   YZ=             -2.4335

  Exact polarizability:     212.503      -1.057     142.611      -1.931       0.186     135.914
 Approx polarizability:     247.183      -0.953     194.288      -1.713       6.537     216.217

 Summary of Natural Population Analysis:

                                       Natural Population
                Natural  -----------------------------------------------
    Atom  No    Charge         Core      Valence    Rydberg      Total
 -----------------------------------------------------------------------
     Si    1    1.66969      9.99772     2.29128    0.04130    12.33031
      O    2   -0.69449      1.99978     6.68261    0.01209     8.69449
      C    3    0.05882      1.99893     3.88531    0.05694     5.94118
      C    4   -1.05659      1.99909     5.03882    0.01869     7.05659
      C    5   -1.06081      1.99912     5.04133    0.02036     7.06081
      C    6   -0.49277      1.99906     4.47365    0.02007     6.49277
      C    7   -0.55155      1.99917     4.53671    0.01567     6.55155
      C    8   -0.55088      1.99920     4.53749    0.01419     6.55088
      C    9   -0.55705      1.99918     4.54291    0.01496     6.55705
      H   10    0.19522      0.00000     0.80204    0.00275     0.80478
      H   11    0.21544      0.00000     0.78256    0.00200     0.78456
      H   12    0.20945      0.00000     0.78821    0.00234     0.79055
      H   13    0.19698      0.00000     0.80043    0.00259     0.80302
      H   14    0.21321      0.00000     0.78438    0.00241     0.78679
      H   15    0.17795      0.00000     0.81922    0.00283     0.82205
      H   16    0.16425      0.00000     0.83133    0.00442     0.83575
      H   17    0.21188      0.00000     0.78177    0.00635     0.78812
      H   18    0.17862      0.00000     0.81838    0.00300     0.82138
      H   19    0.17899      0.00000     0.81799    0.00302     0.82101
      H   20    0.17326      0.00000     0.82208    0.00466     0.82674
      H   21    0.17941      0.00000     0.81768    0.00291     0.82059
      H   22    0.20574      0.00000     0.79093    0.00332     0.79426
      H   23    0.16963      0.00000     0.82597    0.00439     0.83037
      O   24   -0.68008      1.99975     6.67068    0.00965     8.68008
      C   25    0.48837      1.99903     3.45816    0.05444     5.51163
      C   26   -0.53261      1.99879     4.50967    0.02415     6.53261
      C   27   -0.21492      1.99773     4.19116    0.02603     6.21492
      C   28   -0.40501      1.99797     4.38247    0.02457     6.40501
      C   29   -0.54455      1.99915     4.53179    0.01361     6.54455
      C   30   -0.53800      1.99904     4.52307    0.01588     6.53800
      H   31    0.16526      0.00000     0.83086    0.00388     0.83474
      H   32    0.18527      0.00000     0.80665    0.00808     0.81473
      H   33    0.18748      0.00000     0.80113    0.01139     0.81252
      H   34    0.17882      0.00000     0.81495    0.00623     0.82118
      H   35    0.16898      0.00000     0.82761    0.00341     0.83102
      H   36    0.20196      0.00000     0.79429    0.00375     0.79804
      H   37    0.16478      0.00000     0.83214    0.00307     0.83522
      H   38    0.18097      0.00000     0.81589    0.00314     0.81903
      H   39    0.17914      0.00000     0.81686    0.00400     0.82086
      H   40    0.15942      0.00000     0.83765    0.00292     0.84058
      H   41    0.22031      0.00000     0.77615    0.00354     0.77969
 =======================================================================
   * Total *   -1.00000     39.98271    93.53428    0.48301   134.00000

 ******   31 imaginary frequencies (negative Signs) ******

                      1                      2                      3
                      A                      A                      A
 Frequencies --  -1408.9622             -1402.3863             -1402.0663
 Red. masses --      1.0086                 1.0089                 1.0088
 Frc consts  --      1.1797                 1.1690                 1.1685
 IR Inten    --      0.4721                 0.0425                 0.2348

                      4                      5                      6
                      A                      A                      A
 Frequencies --  -1385.9184             -1379.0369             -1376.8719
 Red. masses --      1.0087                 1.0105                 1.0098
 Frc consts  --      1.1415                 1.1322                 1.1279
 IR Inten    --      0.1446                 0.2840                 0.4340

                      7                      8                      9
                      A                      A                      A
 Frequencies --  -1370.6502             -1215.4931             -1196.2145
 Red. masses --      1.0097                 1.0574                 1.0304
 Frc consts  --      1.1176                 0.9204                 0.8687
 IR Inten    --      0.1203                 8.0040                15.4199

                     10                     11                     12
                      A                      A                      A
 Frequencies --  -1186.4787             -1161.1652             -1144.2504
 Red. masses --      1.0379                 1.0265                 1.0705
 Frc consts  --      0.8609                 0.8154                 0.8258
 IR Inten    --     77.3743                33.6897                27.8752

                     13                     14                     15
                      A                      A                      A
 Frequencies --  -1115.4756             -1082.8016             -1049.9193
 Red. masses --      1.1717                 1.0253                 1.0412
 Frc consts  --      0.8590                 0.7083                 0.6762
 IR Inten    --     18.8959                 4.0556                16.2864

                     16                     17                     18
                      A                      A                      A
 Frequencies --  -1035.2771             -1014.7261             -1008.3573
 Red. masses --      1.1292                 1.0621                 1.0458
 Frc consts  --      0.7131                 0.6443                 0.6265
 IR Inten    --     12.1676                18.0215                 2.2331

                     19                     20                     21
                      A                      A                      A
 Frequencies --   -991.0362              -972.1724              -962.0223
 Red. masses --      1.0570                 1.0461                 1.0667
 Frc consts  --      0.6117                 0.5825                 0.5817
 IR Inten    --     15.2829                 1.9331                 2.2091

                     22                     23                     24
                      A                      A                      A
 Frequencies --   -947.0963              -941.3367              -785.6201
 Red. masses --      1.0252                 1.0216                 3.0452
 Frc consts  --      0.5418                 0.5333                 1.1074
 IR Inten    --      2.8760                 2.1163                 4.9586

                     25                     26                     27
                      A                      A                      A
 Frequencies --   -707.3777              -614.7001              -579.7542
 Red. masses --      1.6878                 1.1525                 1.1354
 Frc consts  --      0.4976                 0.2566                 0.2249
 IR Inten    --      7.3900                56.9126                49.5002

                     28                     29                     30
                      A                      A                      A
 Frequencies --   -565.3351              -447.7364              -344.3877
 Red. masses --      1.5006                 1.6579                 1.5990
 Frc consts  --      0.2826                 0.1958                 0.1117
 IR Inten    --      7.2963                13.1648                 0.9553

                     31                     32                     33
                      A                      A                      A
 Frequencies --     -6.6932                93.7190               151.0497
 Red. masses --      7.5784                 8.6275                 5.9036
 Frc consts  --      0.0002                 0.0446                 0.0794
 IR Inten    --      0.7641                 1.1663                 2.6103

                     34                     35                     36
                      A                      A                      A
 Frequencies --    161.1314               179.6834               236.6330
 Red. masses --      3.9957                 6.1965                 2.7148
 Frc consts  --      0.0611                 0.1179                 0.0896
 IR Inten    --      7.0697                 5.3342                11.3621

                     37                     38                     39
                      A                      A                      A
 Frequencies --    243.0551               251.4873               254.8490
 Red. masses --      1.8012                 3.8869                 4.9531
 Frc consts  --      0.0627                 0.1448                 0.1895
 IR Inten    --     10.9308                 1.5423                 4.3400

                     40                     41                     42
                      A                      A                      A
 Frequencies --    283.8467               306.9994               324.5085
 Red. masses --      4.9746                 3.2682                 3.5807
 Frc consts  --      0.2361                 0.1815                 0.2222
 IR Inten    --     10.7005                 2.2751                10.8206

                     43                     44                     45
                      A                      A                      A
 Frequencies --    328.3292               369.3614               398.5309
 Red. masses --      4.0723                 1.7015                 4.0322
 Frc consts  --      0.2587                 0.1368                 0.3773
 IR Inten    --      8.2311                 2.7199                12.9965

                     46                     47                     48
                      A                      A                      A
 Frequencies --    405.2720               415.0316               431.5832
 Red. masses --      1.3120                 2.4103                 2.0510
 Frc consts  --      0.1270                 0.2446                 0.2251
 IR Inten    --     17.7774                16.3167                 2.9766

                     49                     50                     51
                      A                      A                      A
 Frequencies --    459.4892               460.6060               475.6853
 Red. masses --      3.0804                 3.3395                 4.0997
 Frc consts  --      0.3832                 0.4174                 0.5466
 IR Inten    --     13.3292                 1.6386                21.1717

                     52                     53                     54
                      A                      A                      A
 Frequencies --    481.9130               546.8321               566.0755
 Red. masses --      1.2871                 3.1510                 3.7569
 Frc consts  --      0.1761                 0.5552                 0.7093
 IR Inten    --     15.8677                41.6112               160.6556

                     55                     56                     57
                      A                      A                      A
 Frequencies --    643.4958               644.3091               663.0965
 Red. masses --      5.9361                 5.6464                 4.4456
 Frc consts  --      1.4483                 1.3811                 1.1517
 IR Inten    --      4.9829                52.5528                 1.6820

                     58                     59                     60
                      A                      A                      A
 Frequencies --    666.4369               673.2178               722.5903
 Red. masses --      4.3365                 4.0702                 3.4278
 Frc consts  --      1.1348                 1.0869                 1.0545
 IR Inten    --      5.4391                15.7650                59.4339

                     61                     62                     63
                      A                      A                      A
 Frequencies --    737.3699               778.6687               801.3125
 Red. masses --      3.4112                 4.4502                 3.0848
 Frc consts  --      1.0928                 1.5898                 1.1670
 IR Inten    --     36.7383                11.1418                14.3791

                     64                     65                     66
                      A                      A                      A
 Frequencies --    809.1295               823.6844               874.2383
 Red. masses --      6.1220                 4.4754                 2.1535
 Frc consts  --      2.3615                 1.7890                 0.9698
 IR Inten    --      5.5447                70.2994                 5.4595

                     67                     68                     69
                      A                      A                      A
 Frequencies --    877.1438               886.1436               890.8809
 Red. masses --      1.0920                 1.0495                 1.0931
 Frc consts  --      0.4950                 0.4856                 0.5112
 IR Inten    --      0.8599                 0.8361                 0.3075

                     70                     71                     72
                      A                      A                      A
 Frequencies --    911.0145               918.9927               952.1639
 Red. masses --      1.0917                 1.0886                 1.0615
 Frc consts  --      0.5339                 0.5417                 0.5670
 IR Inten    --      2.4015                 0.5459                 2.1500

                     73                     74                     75
                      A                      A                      A
 Frequencies --    962.5524               970.3884               973.8244
 Red. masses --      1.2116                 1.3524                 1.1735
 Frc consts  --      0.6614                 0.7503                 0.6557
 IR Inten    --      2.9282                 7.1678                 5.8083

                     76                     77                     78
                      A                      A                      A
 Frequencies --    985.9827               987.2592               994.3786
 Red. masses --      1.0689                 1.0858                 1.4003
 Frc consts  --      0.6122                 0.6236                 0.8158
 IR Inten    --      2.9742                 0.4820                11.4333

                     79                     80                     81
                      A                      A                      A
 Frequencies --    996.7550              1001.0964              1004.8557
 Red. masses --      1.0914                 1.0563                 1.7119
 Frc consts  --      0.6389                 0.6237                 1.0184
 IR Inten    --      4.2516                 8.2885                23.8722

                     82                     83                     84
                      A                      A                      A
 Frequencies --   1032.8193              1065.5950              1088.2458
 Red. masses --      2.1057                 1.8049                 1.1568
 Frc consts  --      1.3234                 1.2075                 0.8072
 IR Inten    --      8.1151                 6.0303                 8.1017

                     85                     86                     87
                      A                      A                      A
 Frequencies --   1210.1930              1253.9428              1281.6493
 Red. masses --      3.2864                 3.5534                10.8268
 Frc consts  --      2.8359                 3.2919                10.4782
 IR Inten    --      3.1399                14.5758               126.2202

                     88                     89                     90
                      A                      A                      A
 Frequencies --   1343.6306              1463.8324              1673.5228
 Red. masses --      5.7921                10.5364                10.4112
 Frc consts  --      6.1609                13.3023                17.1796
 IR Inten    --      3.9194                15.3644               381.4853

                     91                     92                     93
                      A                      A                      A
 Frequencies --   1707.3157              2977.9181              4453.9988
 Red. masses --     11.6011                 8.0470                 1.0325
 Frc consts  --     19.9241                42.0448                12.0679
 IR Inten    --    872.5097                 4.9311                21.1291

                     94                     95                     96
                      A                      A                      A
 Frequencies --   4454.9708              4457.5488              4460.7222
 Red. masses --      1.0328                 1.0312                 1.0320
 Frc consts  --     12.0772                12.0718                12.0982
 IR Inten    --     38.5065                25.8872                44.9544

                     97                     98                     99
                      A                      A                      A
 Frequencies --   4468.8771              4469.4921              4473.9902
 Red. masses --      1.0318                 1.0315                 1.0324
 Frc consts  --     12.1403                12.1410                12.1750
 IR Inten    --      5.3947                14.9005                 7.0878

                    100                    101                    102
                      A                      A                      A
 Frequencies --   4481.7059              4550.2076              4592.8162
 Red. masses --      1.0716                 1.0884                 1.1047
 Frc consts  --     12.6816                13.2769                13.7290
 IR Inten    --    130.7734                10.0910                20.2860

                    103                    104                    105
                      A                      A                      A
 Frequencies --   4623.0069              4649.8403              4650.4399
 Red. masses --      1.0877                 1.1061                 1.1047
 Frc consts  --     13.6962                14.0905                14.0761
 IR Inten    --      9.2822                18.8523                30.5013

                    106                    107                    108
                      A                      A                      A
 Frequencies --   4660.3521              4660.8660              4669.0242
 Red. masses --      1.1065                 1.1068                 1.1066
 Frc consts  --     14.1594                14.1668                14.2132
 IR Inten    --     21.9790                18.8426                 9.6593

                    109                    110                    111
                      A                      A                      A
 Frequencies --   4669.8297              4674.2943              4675.2154
 Red. masses --      1.1063                 1.1053                 1.1064
 Frc consts  --     14.2144                14.2284                14.2482
 IR Inten    --      7.1047                 6.6292                 2.7403

                    112                    113                    114
                      A                      A                      A
 Frequencies --   4675.9343              4676.3234              4681.8679
 Red. masses --      1.1066                 1.1051                 1.1071
 Frc consts  --     14.2557                14.2383                14.2981
 IR Inten    --     18.8244                 1.6728                 3.0872

                    115                    116                    117
                      A                      A                      A
 Frequencies --   4683.7128              4690.3909              4694.2562
 Red. masses --      1.1057                 1.1077                 1.1057
 Frc consts  --     14.2918                14.3581                14.3562
 IR Inten    --      1.2856                 6.4216                 0.1882

 - Thermochemistry -
 -------------------
 Temperature   298.150 Kelvin.  Pressure   1.00000 Atm.
 Atom     1 has atomic number 14 and mass  27.97693

 Molecular mass:   241.16238 amu.
 Principal axes and moments of inertia in atomic units:
                           1         2         3
     Eigenvalues --  1939.625308021.593828233.73218
           X            0.99998  -0.00349  -0.00585
           Y            0.00319   0.99871  -0.05068
           Z            0.00602   0.05066   0.99870
 This molecule is an asymmetric top.
 Rotational symmetry number  1.
 Warning -- assumption of classical behavior for rotation
           may cause significant error
 Rotational temperatures (Kelvin)      0.04465     0.01080     0.01052
 Rotational constants (GHZ):           0.93046     0.22499     0.21919
   31 imaginary frequencies ignored.
 Zero-point vibrational energy     968825.7 (Joules/Mol)
                                  231.55489 (Kcal/Mol)
 Warning -- explicit consideration of  23 degrees of freedom as
           vibrations may cause significant error
 Vibrational temperatures:    134.84   217.33   231.83   258.52   340.46
          (Kelvin)            349.70   361.83   366.67   408.39   441.70
                              466.90   472.39   531.43   573.40   583.10
                              597.14   620.95   661.10   662.71   684.40
                              693.37   786.77   814.46   925.85   927.02
                              954.05   958.85   968.61  1039.65  1060.91
                             1120.33  1152.91  1164.16  1185.10  1257.83
                             1262.01  1274.96  1281.78  1310.75  1322.23
                             1369.95  1384.90  1396.17  1401.12  1418.61
                             1420.45  1430.69  1434.11  1440.35  1445.76
                             1486.00  1533.15  1565.74  1741.20  1804.14
                             1844.01  1933.18  2106.13  2407.83  2456.45
                             4284.56  6408.31  6409.71  6413.42  6417.98
                             6429.72  6430.60  6437.07  6448.18  6546.73
                             6608.04  6651.48  6690.08  6690.95  6705.21
                             6705.95  6717.68  6718.84  6725.27  6726.59
                             6727.63  6728.19  6736.16  6738.82  6748.43
                             6753.99

 Zero-point correction=                           0.369006 (Hartree/Particle)
 Thermal correction to Energy=                    0.382974
 Thermal correction to Enthalpy=                  0.383919
 Thermal correction to Gibbs Free Energy=         0.330079
 Sum of electronic and zero-point Energies=           -947.965608
 Sum of electronic and thermal Energies=              -947.951640
 Sum of electronic and thermal Enthalpies=            -947.950695
 Sum of electronic and thermal Free Energies=         -948.004535

                     E (Thermal)             CV                S
                      KCal/Mol        Cal/Mol-Kelvin    Cal/Mol-Kelvin
 Total                  240.320             59.561            113.315
 Electronic               0.000              0.000              0.000
 Translational            0.889              2.981             42.342
 Rotational               0.889              2.981             33.215
 Vibrational            238.543             53.599             37.758
 Vibration     1          0.603              1.954              3.581
 Vibration     2          0.618              1.902              2.659
 Vibration     3          0.622              1.890              2.536
 Vibration     4          0.629              1.867              2.332
 Vibration     5          0.656              1.785              1.828
 Vibration     6          0.659              1.774              1.780
 Vibration     7          0.663              1.760              1.720
 Vibration     8          0.665              1.755              1.697
 Vibration     9          0.682              1.704              1.510
 Vibration    10          0.697              1.660              1.378
 Vibration    11          0.709              1.626              1.287
 Vibration    12          0.712              1.619              1.268
 Vibration    13          0.742              1.535              1.082
 Vibration    14          0.765              1.473              0.968
 Vibration    15          0.770              1.459              0.943
 Vibration    16          0.778              1.438              0.909
 Vibration    17          0.793              1.401              0.853
 Vibration    18          0.817              1.340              0.768
 Vibration    19          0.818              1.337              0.764
 Vibration    20          0.832              1.304              0.722
 Vibration    21          0.838              1.290              0.705
 Vibration    22          0.902              1.147              0.551
 Vibration    23          0.922              1.105              0.512

 Normal termination of Gaussian 16 at Mon Mar  6 11:27:14 2023.
