 Gaussian 16, Revision C.01,
 Gaussian 16:  ES64L-G16RevC.01  3-Jul-2019

 ----------------------------------------------------------------------
 #p pop=(regular,nbo,savenbos) freq=noraman def2svp empiricaldispersion
 =gd3bj output=wfx pbe1pbe
 ----------------------------------------------------------------------

 ----------------------------------------
 ATUNIM_Complex_9_Ligand_1_ON_Cu_oriented
 ----------------------------------------
 Symbolic Z-matrix:
 Charge = -1 Multiplicity = 1

                         Standard orientation:
 ---------------------------------------------------------------------
 Center     Atomic      Atomic             Coordinates (Angstroms)
 Number     Number       Type             X           Y           Z
 ---------------------------------------------------------------------
      1          8           0       -3.586087   -1.704209   -0.459661
      2          8           0        4.404787   -1.122756    0.222420
      3          7           0       -1.562102    1.214727    0.307108
      4          6           0       -1.481156   -0.987350    1.458571
      5          1           0       -0.528435   -0.876532    1.656734
      6          1           0       -1.681994   -1.940165    1.346018
      7          1           0       -2.012803   -0.626663    2.198319
      8          6           0       -3.274832   -0.519188   -0.188826
      9          6           0       -1.820499   -0.246537    0.183960
     10          1           0       -1.239896   -0.604796   -0.547240
     11          6           0        2.524126   -0.581385   -1.178983
     12          1           0        2.835516   -1.159122   -1.864889
     13          6           0        1.599665    1.103586    0.802110
     14          6           0        1.339573    0.127438   -1.346439
     15          1           0        0.849334    0.028357   -2.153982
     16          6           0        3.242925   -0.438062   -0.009820
     17          6           0        0.859530    0.975351   -0.362700
     18          6           0        2.784944    0.409435    0.987595
     19          6           0       -0.450113    1.719315   -0.557289
     20          1           0       -0.723468    1.642073   -1.505702
     21          1           0        4.657709   -1.537528   -0.442715
     22          8           0       -4.085213    0.447339   -0.221429
     23          1           0        1.287409    1.680342    1.489771
     24          1           0        3.280045    0.512832    1.791452
     25          1           0       -0.304794    2.678434   -0.363227
     26          1           0       -1.296789    1.361069    1.185999
 ---------------------------------------------------------------------

 SCF Done:  E(RPBE1PBE) =  -667.349999683     A.U. after   17 cycles

 The electronic state is 1-A.
 Alpha  occ. eigenvalues --  -19.14461 -18.91512 -18.90990 -14.21721 -10.20334
 Alpha  occ. eigenvalues --  -10.13151 -10.13004 -10.12894 -10.12845 -10.12725
 Alpha  occ. eigenvalues --  -10.11720 -10.08194 -10.07038 -10.04085  -1.02423
 Alpha  occ. eigenvalues --   -0.81196  -0.79593  -0.77164  -0.70811  -0.69059
 Alpha  occ. eigenvalues --   -0.68549  -0.63413  -0.58907  -0.56320  -0.53423
 Alpha  occ. eigenvalues --   -0.50320  -0.49704  -0.41807  -0.41078  -0.38295
 Alpha  occ. eigenvalues --   -0.37155  -0.36514  -0.34547  -0.34269  -0.32778
 Alpha  occ. eigenvalues --   -0.31645  -0.28839  -0.28195  -0.27225  -0.26313
 Alpha  occ. eigenvalues --   -0.26278  -0.24626  -0.23188  -0.20925  -0.17877
 Alpha  occ. eigenvalues --   -0.17494  -0.15600  -0.14633  -0.09120  -0.02683
 Alpha  occ. eigenvalues --   -0.02559  -0.00429
 Alpha virt. eigenvalues --    0.08375   0.10712   0.16239   0.18549   0.20715
 Alpha virt. eigenvalues --    0.21796   0.23715   0.24340   0.25495   0.26370
 Alpha virt. eigenvalues --    0.28046   0.29637   0.29783   0.30068   0.31568

 Mulliken charges:
               1
     1  O   -0.459850
     2  O   -0.148431
     3  N   -0.197800
     4  C    0.151870
     5  H   -0.051012
     6  H   -0.022641
     7  H   -0.032827
     8  C    0.120268
     9  C   -0.072081
    10  H   -0.047887
    11  C    0.017975
    12  H   -0.120040
    13  C    0.078132
    14  C    0.082771
    15  H   -0.090747
    16  C    0.149767
    17  C   -0.139775
    18  C    0.037937
    19  C    0.341424
    20  H   -0.036449
    21  H    0.084724
    22  O   -0.436965
    23  H   -0.104724
    24  H   -0.105522
    25  H   -0.039733
    26  H    0.041618
 Sum of Mulliken charges =  -1.00000

 Dipole moment (field-independent basis, Debye):
    X=             16.9015    Y=              2.0442    Z=              0.5093  Tot=             17.0323
 Quadrupole moment (field-independent basis, Debye-Ang):
   XX=           -160.2114   YY=            -92.3514   ZZ=            -79.6210
   XY=            -11.5607   XZ=            -11.8351   YZ=              2.3938

  Exact polarizability:     146.552     -15.213      97.981       5.469       7.386      97.463
 Approx polarizability:     196.808     -34.879     157.360      12.845      20.242     157.447

 Summary of Natural Population Analysis:

                                       Natural Population
                Natural  -----------------------------------------------
    Atom  No    Charge         Core      Valence    Rydberg      Total
 -----------------------------------------------------------------------
      O    1   -0.81209      1.99975     6.80287    0.00947     8.81209
      O    2   -0.66213      1.99964     6.64667    0.01581     8.66213
      N    3   -0.65014      1.99942     5.63121    0.01952     7.65014
      C    4   -0.57133      1.99916     4.56268    0.00949     6.57133
      H    5    0.16893      0.00000     0.82714    0.00393     0.83107
      H    6    0.20524      0.00000     0.78742    0.00733     0.79476
      H    7    0.17879      0.00000     0.81679    0.00442     0.82121
      C    8    0.77806      1.99940     3.14867    0.07387     5.22194
      C    9   -0.10883      1.99897     4.08690    0.02295     6.10883
      H   10    0.17138      0.00000     0.82095    0.00766     0.82862
      C   11   -0.27418      1.99899     4.25952    0.01568     6.27418
      H   12    0.17651      0.00000     0.82017    0.00332     0.82349
      C   13   -0.16825      1.99898     4.15359    0.01568     6.16825
      C   14   -0.16208      1.99898     4.14812    0.01498     6.16208
      H   15    0.18244      0.00000     0.81452    0.00304     0.81756
      C   16    0.32438      1.99874     3.65465    0.02223     5.67562
      C   17   -0.05770      1.99899     4.04204    0.01668     6.05770
      C   18   -0.24123      1.99900     4.22646    0.01576     6.24123
      C   19   -0.17361      1.99903     4.15605    0.01853     6.17361
      H   20    0.18506      0.00000     0.81072    0.00421     0.81494
      H   21    0.42711      0.00000     0.56621    0.00667     0.57289
      O   22   -0.77844      1.99976     6.76975    0.00893     8.77844
      H   23    0.17526      0.00000     0.82049    0.00425     0.82474
      H   24    0.18494      0.00000     0.81163    0.00342     0.81506
      H   25    0.18372      0.00000     0.81304    0.00323     0.81628
      H   26    0.31817      0.00000     0.67486    0.00697     0.68183
 =======================================================================
   * Total *   -1.00000     27.98880    75.67315    0.33805   104.00000

 ******   18 imaginary frequencies (negative Signs) ******

                      1                      2                      3
                      A                      A                      A
 Frequencies --  -2023.1016             -1547.6380             -1255.4433
 Red. masses --      1.0704                 1.0795                 1.0693
 Frc consts  --      2.5812                 1.5233                 0.9930
 IR Inten    --    117.3759               195.9415                64.6212

                      4                      5                      6
                      A                      A                      A
 Frequencies --  -1226.6861             -1202.0971             -1068.4490
 Red. masses --      1.0093                 1.0655                 1.0243
 Frc consts  --      0.8948                 0.9071                 0.6889
 IR Inten    --      0.2021                 1.5542                 2.8524

                      7                      8                      9
                      A                      A                      A
 Frequencies --  -1050.3024             -1025.5759              -896.3023
 Red. masses --      1.0424                 1.0929                 1.0508
 Frc consts  --      0.6775                 0.6773                 0.4974
 IR Inten    --     15.7420               100.8903                 1.7728

                     10                     11                     12
                      A                      A                      A
 Frequencies --   -827.1555              -817.0521              -667.7062
 Red. masses --      1.0817                 1.0601                 1.1914
 Frc consts  --      0.4360                 0.4170                 0.3130
 IR Inten    --      2.6796                12.7569                 1.1683

                     13                     14                     15
                      A                      A                      A
 Frequencies --   -640.2526              -551.2801              -376.0294
 Red. masses --      1.1032                 1.2032                 1.0557
 Frc consts  --      0.2664                 0.2154                 0.0879
 IR Inten    --      7.7016                 5.2434                 5.2287

                     16                     17                     18
                      A                      A                      A
 Frequencies --   -269.4349              -180.5790               -84.5621
 Red. masses --      2.2178                 2.7997                 5.9711
 Frc consts  --      0.0949                 0.0538                 0.0252
 IR Inten    --      1.8542                 3.5492                 3.2521

                     19                     20                     21
                      A                      A                      A
 Frequencies --     48.2912               158.8529               182.3451
 Red. masses --      8.4683                 7.6029                 6.5763
 Frc consts  --      0.0116                 0.1130                 0.1288
 IR Inten    --      3.9424                 2.5678                 2.1836

                     22                     23                     24
                      A                      A                      A
 Frequencies --    233.2185               280.6709               309.4992
 Red. masses --      4.1428                 5.4159                 3.9644
 Frc consts  --      0.1328                 0.2514                 0.2237
 IR Inten    --      2.6979                 2.7163                 3.6532

                     25                     26                     27
                      A                      A                      A
 Frequencies --    405.1477               463.2179               518.9621
 Red. masses --      6.0369                 4.1973                 2.1281
 Frc consts  --      0.5838                 0.5306                 0.3377
 IR Inten    --      3.9403                 2.6036                10.6094

                     28                     29                     30
                      A                      A                      A
 Frequencies --    532.6289               548.4111               588.0903
 Red. masses --      9.4029                 3.0440                 4.0908
 Frc consts  --      1.5717                 0.5394                 0.8336
 IR Inten    --      0.4311                 8.7873                 4.9983

                     31                     32                     33
                      A                      A                      A
 Frequencies --    606.6762               638.5290               659.3862
 Red. masses --      3.0320                 2.1565                 3.2658
 Frc consts  --      0.6575                 0.5180                 0.8366
 IR Inten    --     12.4806                 5.7082                27.4497

                     34                     35                     36
                      A                      A                      A
 Frequencies --    680.9356               706.9500               752.4807
 Red. masses --      1.5992                 2.9872                 4.5799
 Frc consts  --      0.4369                 0.8796                 1.5279
 IR Inten    --      7.6919                 7.4801                 4.5817

                     37                     38                     39
                      A                      A                      A
 Frequencies --    805.4462               826.3492               841.4708
 Red. masses --      5.5581                 5.0350                 3.9889
 Frc consts  --      2.1245                 2.0257                 1.6641
 IR Inten    --      2.6914                35.7549                20.2250

                     40                     41                     42
                      A                      A                      A
 Frequencies --    851.5096               904.3499               931.2460
 Red. masses --      4.0363                 2.8177                 4.8064
 Frc consts  --      1.7243                 1.3577                 2.4558
 IR Inten    --      1.0755                 4.6575                11.1268

                     43                     44                     45
                      A                      A                      A
 Frequencies --    941.4326               978.2801              1014.5239
 Red. masses --      2.1580                 2.2765                 2.5694
 Frc consts  --      1.1269                 1.2837                 1.5581
 IR Inten    --      8.3611                 7.9399                 0.7953

                     46                     47                     48
                      A                      A                      A
 Frequencies --   1080.2839              1099.1910              1123.8740
 Red. masses --      1.4923                 1.3172                 1.3074
 Frc consts  --      1.0261                 0.9377                 0.9730
 IR Inten    --     10.9295                 6.0676                14.9147

                     49                     50                     51
                      A                      A                      A
 Frequencies --   1149.6303              1155.9595              1178.2486
 Red. masses --      4.7695                 1.4735                 3.0612
 Frc consts  --      3.7140                 1.1600                 2.5039
 IR Inten    --      5.5736                11.7862                34.7994

                     52                     53                     54
                      A                      A                      A
 Frequencies --   1208.7286              1300.6084              1401.6776
 Red. masses --      3.4587                 7.9097                 9.4598
 Frc consts  --      2.9773                 7.8832                10.9504
 IR Inten    --     14.0520                58.0371                 9.3432

                     55                     56                     57
                      A                      A                      A
 Frequencies --   1467.2452              1469.7673              1507.2722
 Red. masses --     11.9572                 7.6813                 9.7326
 Frc consts  --     15.1665                 9.7764                13.0275
 IR Inten    --    265.8197                 4.9655               164.2678

                     58                     59                     60
                      A                      A                      A
 Frequencies --   1672.7380              1714.4755              1720.9176
 Red. masses --     11.3961                 9.7917                12.4392
 Frc consts  --     18.7872                16.9579                21.7051
 IR Inten    --     57.6296                 5.4885               407.5221

                     61                     62                     63
                      A                      A                      A
 Frequencies --   4121.6865              4193.3032              4234.2056
 Red. masses --      1.0864                 1.0599                 1.0321
 Frc consts  --     10.8737                10.9811                10.9022
 IR Inten    --     15.7581                26.9659                20.3063

                     64                     65                     66
                      A                      A                      A
 Frequencies --   4306.9028              4419.1927              4430.5138
 Red. masses --      1.1097                 1.1062                 1.1064
 Frc consts  --     12.1282                12.7287                12.7955
 IR Inten    --      7.5633                21.2724                 3.5821

                     67                     68                     69
                      A                      A                      A
 Frequencies --   4707.0979              4760.2057              4765.8800
 Red. masses --      1.0752                 1.0881                 1.0877
 Frc consts  --     14.0362                14.5262                14.5555
 IR Inten    --      5.8976                 1.9208                 3.1792

                     70                     71                     72
                      A                      A                      A
 Frequencies --   4776.5222              4777.3966              6232.7572
 Red. masses --      1.0910                 1.0911                 1.0670
 Frc consts  --     14.6656                14.6720                24.4218
 IR Inten    --      1.3280                 0.9443               121.2029

 - Thermochemistry -
 -------------------
 Temperature   298.150 Kelvin.  Pressure   1.00000 Atm.
 Atom     1 has atomic number  8 and mass  15.99491

 Molecular mass:   194.08172 amu.
 Principal axes and moments of inertia in atomic units:
                           1         2         3
     Eigenvalues --  1154.680225530.055775805.15262
           X            0.99997  -0.00377  -0.00646
           Y            0.00371   0.99995  -0.00890
           Z            0.00649   0.00888   0.99994
 This molecule is an asymmetric top.
 Rotational symmetry number  1.
 Warning -- assumption of classical behavior for rotation
           may cause significant error
 Rotational temperatures (Kelvin)      0.07501     0.01566     0.01492
 Rotational constants (GHZ):           1.56298     0.32635     0.31089
   18 imaginary frequencies ignored.
 Zero-point vibrational energy     552586.1 (Joules/Mol)
                                  132.07125 (Kcal/Mol)
 Warning -- explicit consideration of  13 degrees of freedom as
           vibrations may cause significant error
 Vibrational temperatures:     69.48   228.55   262.35   335.55   403.82
          (Kelvin)            445.30   582.92   666.47   746.67   766.33
                              789.04   846.13   872.87   918.70   948.71
                              979.71  1017.14  1082.65  1158.86  1188.93
                             1210.69  1225.13  1301.16  1339.86  1354.51
                             1407.53  1459.67  1554.29  1581.49  1617.00
                             1654.06  1663.17  1695.24  1739.09  1871.29
                             2016.70  2111.04  2114.67  2168.63  2406.70
                             2466.75  2476.02  5930.19  6033.23  6092.08
                             6196.67  6358.23  6374.52  6772.46  6848.87
                             6857.04  6872.35  6873.61  8967.55

 Zero-point correction=                           0.210469 (Hartree/Particle)
 Thermal correction to Energy=                    0.219489
 Thermal correction to Enthalpy=                  0.220433
 Thermal correction to Gibbs Free Energy=         0.174855
 Sum of electronic and zero-point Energies=           -667.139531
 Sum of electronic and thermal Energies=              -667.130510
 Sum of electronic and thermal Enthalpies=            -667.129566
 Sum of electronic and thermal Free Energies=         -667.175145

                     E (Thermal)             CV                S
                      KCal/Mol        Cal/Mol-Kelvin    Cal/Mol-Kelvin
 Total                  137.732             36.422             95.929
 Electronic               0.000              0.000              0.000
 Translational            0.889              2.981             41.695
 Rotational               0.889              2.981             31.983
 Vibrational            135.954             30.460             22.251
 Vibration     1          0.595              1.978              4.886
 Vibration     2          0.621              1.893              2.563
 Vibration     3          0.630              1.864              2.304
 Vibration     4          0.654              1.790              1.854
 Vibration     5          0.680              1.709              1.530
 Vibration     6          0.699              1.656              1.365
 Vibration     7          0.770              1.459              0.944
 Vibration     8          0.821              1.332              0.757
 Vibration     9          0.874              1.208              0.612
 Vibration    10          0.888              1.178              0.581
 Vibration    11          0.904              1.143              0.547
 Vibration    12          0.945              1.057              0.471
 Vibration    13          0.965              1.018              0.438

 Normal termination of Gaussian 16 at Mon Mar  6 10:45:02 2023.
