 Gaussian 16, Revision C.01,
 Gaussian 16:  ES64L-G16RevC.01  3-Jul-2019

 ----------------------------------------------------------------------
 #p pop=(regular,nbo,savenbos) freq=noraman def2svp empiricaldispersion
 =gd3bj output=wfx pbe1pbe
 ----------------------------------------------------------------------

 ----------------------------------------
 BABJOH_Complex_8_Ligand_2_ON_Cu_oriented
 ----------------------------------------
 Symbolic Z-matrix:
 Charge = -2 Multiplicity = 1

                         Standard orientation:
 ---------------------------------------------------------------------
 Center     Atomic      Atomic             Coordinates (Angstroms)
 Number     Number       Type             X           Y           Z
 ---------------------------------------------------------------------
      1         53           0        3.449355    0.347782    0.097734
      2         53           0       -1.665982   -2.795090   -0.002471
      3          7           0       -1.023210    4.122071    0.493925
      4          1           0       -0.292708    4.287465    0.014456
      5          8           0       -4.110372    2.371795    0.168785
      6          8           0       -2.483548    2.283044    1.675542
      7          8           0        1.383990   -2.049144    0.449321
      8          6           0       -2.980837    2.663966    0.561587
      9          6           0       -2.055648    3.474250   -0.339111
     10          6           0       -1.417750    2.551518   -1.404573
     11          1           0       -2.117192    2.240354   -1.999341
     12          1           0       -0.797597    3.077570   -1.933536
     13          6           0       -0.669782    1.331118   -0.852723
     14          6           0        0.698423    1.387413   -0.610738
     15          1           0        1.160401    2.180901   -0.755767
     16          6           0        1.376187    0.270140   -0.156531
     17          6           0        0.754195   -0.998890    0.063952
     18          6           0       -0.635801   -0.980687   -0.199185
     19          6           0       -1.317025    0.145848   -0.635010
     20          1           0       -2.234427    0.095132   -0.782252
     21          1           0       -1.326871    4.889722    0.827403
     22          1           0       -2.580223    4.168044   -0.792593
 ---------------------------------------------------------------------

 SCF Done:  E(RPBE1PBE) =  -1221.75211128     A.U. after   18 cycles

 The electronic state is 1-A.
 Alpha  occ. eigenvalues --  -18.87036 -18.83764 -18.81867 -14.09220 -10.02427
 Alpha  occ. eigenvalues --  -10.01164 -10.00584  -9.99580  -9.98171  -9.97545
 Alpha  occ. eigenvalues --   -9.97368  -9.97235  -9.96583  -6.66047  -6.65127
 Alpha  occ. eigenvalues --   -4.67663  -4.66767  -4.66406  -4.66352  -4.65482
 Alpha  occ. eigenvalues --   -4.65410  -1.70380  -1.69944  -1.69903  -1.69477
 Alpha  occ. eigenvalues --   -1.69041  -1.68983  -1.68818  -1.68816  -1.67876
 Alpha  occ. eigenvalues --   -1.67874  -0.73063  -0.71840  -0.67675  -0.62275
 Alpha  occ. eigenvalues --   -0.62032  -0.54890  -0.54300  -0.48956  -0.46140
 Alpha  occ. eigenvalues --   -0.45028  -0.40740  -0.35233  -0.34123  -0.29426
 Alpha  occ. eigenvalues --   -0.26771  -0.25522  -0.23080  -0.22037  -0.18334
 Alpha  occ. eigenvalues --   -0.17797  -0.17430  -0.16612  -0.14883  -0.13653
 Alpha  occ. eigenvalues --   -0.12983  -0.10640  -0.09633  -0.08998  -0.07891
 Alpha  occ. eigenvalues --   -0.07282  -0.06022  -0.03899  -0.03758  -0.02811
 Alpha  occ. eigenvalues --    0.00006   0.00591   0.03034   0.05683   0.05750
 Alpha  occ. eigenvalues --    0.06765   0.08387
 Alpha virt. eigenvalues --    0.21397   0.24264   0.25012   0.28371   0.29980
 Alpha virt. eigenvalues --    0.33625   0.34353   0.36668   0.39414   0.40034
 Alpha virt. eigenvalues --    0.42085   0.42396   0.42926   0.45797   0.46995

 Mulliken charges:
               1
     1  I   -0.145347
     2  I   -0.124002
     3  N   -0.064947
     4  H   -0.005203
     5  O   -0.435993
     6  O   -0.447956
     7  O   -0.434409
     8  C    0.085609
     9  C    0.006027
    10  C    0.229886
    11  H   -0.061208
    12  H   -0.089034
    13  C   -0.083167
    14  C    0.130755
    15  H   -0.178305
    16  C   -0.271184
    17  C    0.216492
    18  C   -0.269987
    19  C    0.173921
    20  H   -0.136831
    21  H    0.004697
    22  H   -0.099814
 Sum of Mulliken charges =  -2.00000

 Dipole moment (field-independent basis, Debye):
    X=              8.8774    Y=             -2.9394    Z=             -5.5783  Tot=             10.8888
 Quadrupole moment (field-independent basis, Debye-Ang):
   XX=           -209.3563   YY=           -172.7470   ZZ=           -144.9163
   XY=             32.9741   XZ=             10.0665   YZ=             -9.6703

  Exact polarizability:     204.565      12.264     187.472      11.675     -15.034     100.614
 Approx polarizability:     299.829      11.841     279.541      29.541     -33.628     167.447

 Summary of Natural Population Analysis:

                                       Natural Population
                Natural  -----------------------------------------------
    Atom  No    Charge         Core      Valence    Rydberg      Total
 -----------------------------------------------------------------------
      I    1    0.01157     45.99772     6.96534    0.02537    52.98843
      I    2    0.02468     45.99776     6.95357    0.02399    52.97532
      N    3   -0.79190      1.99938     5.76824    0.02428     7.79190
      H    4    0.29472      0.00000     0.69797    0.00731     0.70528
      O    5   -0.80510      1.99973     6.79514    0.01023     8.80510
      O    6   -0.78298      1.99977     6.77449    0.00872     8.78298
      O    7   -0.76914      1.99979     6.76110    0.00825     8.76914
      C    8    0.76762      1.99942     3.15652    0.07643     5.23238
      C    9   -0.09219      1.99893     4.07047    0.02280     6.09219
      C   10   -0.37724      1.99899     4.36196    0.01629     6.37724
      H   11    0.19197      0.00000     0.80163    0.00640     0.80803
      H   12    0.16506      0.00000     0.82942    0.00552     0.83494
      C   13   -0.07223      1.99897     4.05115    0.02212     6.07223
      C   14   -0.19314      1.99882     4.17667    0.01765     6.19314
      H   15    0.16648      0.00000     0.82982    0.00370     0.83352
      C   16   -0.27288      1.99876     4.25178    0.02234     6.27288
      C   17    0.33609      1.99848     3.61782    0.04761     5.66391
      C   18   -0.26258      1.99872     4.24136    0.02250     6.26258
      C   19   -0.16916      1.99879     4.15232    0.01804     6.16916
      H   20    0.18682      0.00000     0.80833    0.00485     0.81318
      H   21    0.30143      0.00000     0.69159    0.00698     0.69857
      H   22    0.14210      0.00000     0.84979    0.00812     0.85790
 =======================================================================
   * Total *   -2.00000    117.98402    81.60647    0.40951   200.00000

 ******   13 imaginary frequencies (negative Signs) ******

                      1                      2                      3
                      A                      A                      A
 Frequencies --  -1676.9882             -1530.7060             -1374.4685
 Red. masses --      1.0348                 1.1321                 1.0547
 Frc consts  --      1.7146                 1.5628                 1.1739
 IR Inten    --     66.4067               118.3564                13.4466

                      4                      5                      6
                      A                      A                      A
 Frequencies --  -1318.6457             -1114.6699             -1109.4455
 Red. masses --      1.0427                 1.0260                 1.0449
 Frc consts  --      1.0682                 0.7511                 0.7577
 IR Inten    --      7.9324                 0.7617                 0.9732

                      7                      8                      9
                      A                      A                      A
 Frequencies --   -883.8061              -809.6350              -534.7889
 Red. masses --      1.0650                 1.0930                 1.2577
 Frc consts  --      0.4902                 0.4221                 0.2119
 IR Inten    --      3.4160                 9.0735                 0.6598

                     10                     11                     12
                      A                      A                      A
 Frequencies --   -438.2211              -389.0866              -286.9730
 Red. masses --      1.4311                 1.6144                 2.5404
 Frc consts  --      0.1619                 0.1440                 0.1233
 IR Inten    --      3.1281                 2.9360                 1.3909

                     13                     14                     15
                      A                      A                      A
 Frequencies --   -104.2809                80.0639                86.5024
 Red. masses --     15.5073                19.8925                18.4320
 Frc consts  --      0.0994                 0.0751                 0.0813
 IR Inten    --      1.5394                 5.1433                 4.7438

                     16                     17                     18
                      A                      A                      A
 Frequencies --     95.5720               150.8920               196.8417
 Red. masses --     12.6145                11.5848                 8.9632
 Frc consts  --      0.0679                 0.1554                 0.2046
 IR Inten    --     12.4839                16.2673                 1.7040

                     19                     20                     21
                      A                      A                      A
 Frequencies --    205.5808               220.5044               234.2956
 Red. masses --      9.8596                12.7443                 9.4944
 Frc consts  --      0.2455                 0.3651                 0.3071
 IR Inten    --      0.3104                 0.8377                 1.7586

                     22                     23                     24
                      A                      A                      A
 Frequencies --    248.6821               375.1781               405.3437
 Red. masses --     15.1286                 6.9085                 3.3797
 Frc consts  --      0.5512                 0.5729                 0.3272
 IR Inten    --      7.5526                 1.2654                 8.1948

                     25                     26                     27
                      A                      A                      A
 Frequencies --    453.4364               482.9594               521.5409
 Red. masses --      4.6708                 5.4185                11.0292
 Frc consts  --      0.5658                 0.7446                 1.7676
 IR Inten    --      2.9511                 2.3700                 1.7947

                     28                     29                     30
                      A                      A                      A
 Frequencies --    556.7138               610.3761               658.2199
 Red. masses --      6.8402                 4.4259                 4.9307
 Frc consts  --      1.2491                 0.9715                 1.2586
 IR Inten    --      1.5107                34.8402                29.4913

                     31                     32                     33
                      A                      A                      A
 Frequencies --    710.7945               725.2048               737.6570
 Red. masses --      4.6059                 2.4203                 3.4168
 Frc consts  --      1.3710                 0.7500                 1.0954
 IR Inten    --     25.9240                 6.0103                28.5099

                     34                     35                     36
                      A                      A                      A
 Frequencies --    746.1062               784.2128               815.0083
 Red. masses --      7.5054                 5.1907                10.6128
 Frc consts  --      2.4616                 1.8808                 4.1534
 IR Inten    --     72.4095                16.6133                24.1822

                     37                     38                     39
                      A                      A                      A
 Frequencies --    860.2399               876.8289               879.8298
 Red. masses --      3.8250                 4.5838                 2.2605
 Frc consts  --      1.6677                 2.0764                 1.0310
 IR Inten    --     16.2910                 4.6999                 7.0472

                     40                     41                     42
                      A                      A                      A
 Frequencies --    937.2261               949.3446              1025.8652
 Red. masses --      1.2867                 4.1995                 3.5542
 Frc consts  --      0.6659                 2.2299                 2.2038
 IR Inten    --     10.6412                 3.5906                 4.4489

                     43                     44                     45
                      A                      A                      A
 Frequencies --   1121.2865              1146.9437              1169.1661
 Red. masses --      7.9733                 6.6257                 5.7579
 Frc consts  --      5.9063                 5.1353                 4.6373
 IR Inten    --     34.1437                10.5557                20.0225

                     46                     47                     48
                      A                      A                      A
 Frequencies --   1342.5328              1368.4904              1429.4049
 Red. masses --     10.2714                 9.3086                10.4794
 Frc consts  --     10.9076                10.2712                12.6153
 IR Inten    --     95.2535                13.0969                52.0172

                     49                     50                     51
                      A                      A                      A
 Frequencies --   1432.5097              1513.5256              1632.1781
 Red. masses --     11.2494                12.2120                10.5597
 Frc consts  --     13.6011                16.4822                16.5744
 IR Inten    --    167.1530               177.9577                75.0641

                     52                     53                     54
                      A                      A                      A
 Frequencies --   1659.9824              1797.2468              4322.4640
 Red. masses --     10.5652                12.6569                 1.0863
 Frc consts  --     17.1529                24.0877                11.9585
 IR Inten    --     27.3437               412.8199                85.6598

                     55                     56                     57
                      A                      A                      A
 Frequencies --   4419.0498              4540.9895              5024.3762
 Red. masses --      1.0607                 1.1073                 1.0893
 Frc consts  --     12.2038                13.4533                16.2024
 IR Inten    --     46.4444                 9.7395                 1.6020

                     58                     59                     60
                      A                      A                      A
 Frequencies --   5032.0209              5263.3010              5407.9498
 Red. masses --      1.0889                 1.0496                 1.0960
 Frc consts  --     16.2455                17.1306                18.8855
 IR Inten    --      2.3492                 3.5533                 3.1378

 - Thermochemistry -
 -------------------
 Temperature   298.150 Kelvin.  Pressure   1.00000 Atm.
 Atom     1 has atomic number 53 and mass 126.90040

 Molecular mass:   430.84339 amu.
 Principal axes and moments of inertia in atomic units:
                           1         2         3
     Eigenvalues --  7158.611639594.98754**********
           X            0.97299  -0.23084   0.00094
           Y            0.23085   0.97296  -0.00741
           Z            0.00079   0.00743   0.99997
 This molecule is an asymmetric top.
 Rotational symmetry number  1.
 Warning -- assumption of classical behavior for rotation
           may cause significant error
 Rotational temperatures (Kelvin)      0.01210     0.00903     0.00543
 Rotational constants (GHZ):           0.25211     0.18809     0.11307
   13 imaginary frequencies ignored.
 Zero-point vibrational energy     390308.2 (Joules/Mol)
                                   93.28590 (Kcal/Mol)
 Warning -- explicit consideration of  16 degrees of freedom as
           vibrations may cause significant error
 Vibrational temperatures:    115.19   124.46   137.51   217.10   283.21
          (Kelvin)            295.78   317.26   337.10   357.80   539.80
                              583.20   652.39   694.87   750.38   800.99
                              878.20   947.03  1022.67  1043.41  1061.32
                             1073.48  1128.31  1172.62  1237.69  1261.56
                             1265.88  1348.46  1365.90  1475.99  1613.28
                             1650.20  1682.17  1931.61  1968.95  2056.59
                             2061.06  2177.63  2348.34  2388.34  2585.84
                             6219.06  6358.03  6533.47  7228.96  7239.96
                             7572.72  7780.83

 Zero-point correction=                           0.148661 (Hartree/Particle)
 Thermal correction to Energy=                    0.159844
 Thermal correction to Enthalpy=                  0.160788
 Thermal correction to Gibbs Free Energy=         0.108046
 Sum of electronic and zero-point Energies=          -1221.603451
 Sum of electronic and thermal Energies=             -1221.592267
 Sum of electronic and thermal Enthalpies=           -1221.591323
 Sum of electronic and thermal Free Energies=        -1221.644066

                     E (Thermal)             CV                S
                      KCal/Mol        Cal/Mol-Kelvin    Cal/Mol-Kelvin
 Total                  100.304             41.251            111.007
 Electronic               0.000              0.000              0.000
 Translational            0.889              2.981             44.072
 Rotational               0.889              2.981             35.348
 Vibrational             98.526             35.290             31.586
 Vibration     1          0.600              1.963              3.889
 Vibration     2          0.601              1.959              3.738
 Vibration     3          0.603              1.952              3.543
 Vibration     4          0.618              1.902              2.661
 Vibration     5          0.636              1.844              2.162
 Vibration     6          0.640              1.832              2.083
 Vibration     7          0.647              1.810              1.955
 Vibration     8          0.654              1.788              1.846
 Vibration     9          0.662              1.765              1.740
 Vibration    10          0.746              1.523              1.059
 Vibration    11          0.770              1.459              0.943
 Vibration    12          0.812              1.353              0.785
 Vibration    13          0.839              1.288              0.702
 Vibration    14          0.877              1.202              0.606
 Vibration    15          0.912              1.125              0.530
 Vibration    16          0.969              1.010              0.432

 Normal termination of Gaussian 16 at Mon Mar  6 10:45:11 2023.
