 Gaussian 16, Revision C.01,
 Gaussian 16:  ES64L-G16RevC.01  3-Jul-2019

 ----------------------------------------------------------------------
 #p pop=(regular,nbo,savenbos) freq=noraman def2svp empiricaldispersion
 =gd3bj output=wfx pbe1pbe
 ----------------------------------------------------------------------

 ----------------------------------------
 BEFHOM_Complex_2_Ligand_1_OO_Cu_oriented
 ----------------------------------------
 Symbolic Z-matrix:
 Charge = -1 Multiplicity = 1

                         Standard orientation:
 ---------------------------------------------------------------------
 Center     Atomic      Atomic             Coordinates (Angstroms)
 Number     Number       Type             X           Y           Z
 ---------------------------------------------------------------------
      1          8           0       -2.769624    0.319218   -0.666634
      2          8           0       -2.160728   -1.347601    0.644704
      3          8           0        2.872171   -0.626511   -0.699052
      4          1           0        2.542770   -0.932730   -1.385228
      5          6           0       -1.938916   -0.261723    0.085074
      6          6           0       -0.540893    0.343607    0.297956
      7          1           0       -0.372631    0.412184    1.260582
      8          6           0        0.513664   -0.545209   -0.313772
      9          1           0        0.355219   -1.460345   -0.033350
     10          1           0        0.433662   -0.511901   -1.280134
     11          6           0        1.910443   -0.148735    0.075626
     12          8           0       -0.442182    1.650878   -0.278993
     13          1           0       -0.135918    2.078025    0.298438
     14          8           0        2.189252    0.514907    1.033773
 ---------------------------------------------------------------------

 SCF Done:  E(RPBE1PBE) =  -530.532210565     A.U. after   15 cycles

 The electronic state is 1-A.
 Alpha  occ. eigenvalues --  -19.14069 -19.07501 -19.02968 -18.93133 -18.92366
 Alpha  occ. eigenvalues --  -10.24068 -10.10289 -10.09777 -10.08517  -1.04825
 Alpha  occ. eigenvalues --   -0.93627  -0.92426  -0.82543  -0.72473  -0.68034
 Alpha  occ. eigenvalues --   -0.57170  -0.53385  -0.42425  -0.41313  -0.37086
 Alpha  occ. eigenvalues --   -0.36580  -0.34202  -0.29959  -0.29103  -0.28309
 Alpha  occ. eigenvalues --   -0.23636  -0.22664  -0.21432  -0.19023  -0.17858
 Alpha  occ. eigenvalues --   -0.16890  -0.14635  -0.04326  -0.04033  -0.02088
 Alpha virt. eigenvalues --    0.14157   0.18180   0.23671   0.26688   0.27664
 Alpha virt. eigenvalues --    0.29317   0.31253   0.35695   0.37541   0.42021
 Alpha virt. eigenvalues --    0.43049   0.44226   0.49362   0.57173   0.58598

 Mulliken charges:
               1
     1  O   -0.434996
     2  O   -0.443069
     3  O   -0.077661
     4  H    0.079741
     5  C    0.084975
     6  C    0.134115
     7  H   -0.042477
     8  C    0.062652
     9  H   -0.000414
    10  H   -0.028242
    11  C    0.112957
    12  O   -0.224677
    13  H    0.035804
    14  O   -0.258707
 Sum of Mulliken charges =  -1.00000

 Dipole moment (field-independent basis, Debye):
    X=              8.8157    Y=              0.0494    Z=             -1.2953  Tot=              8.9104
 Quadrupole moment (field-independent basis, Debye-Ang):
   XX=            -92.6970   YY=            -56.8300   ZZ=            -53.0131
   XY=             -7.2586   XZ=             -8.6035   YZ=              6.5700

  Exact polarizability:      59.917      -1.274      48.201       1.479       1.090      45.771
 Approx polarizability:      72.591      -3.036      73.750       5.458      -0.691      72.179

 Summary of Natural Population Analysis:

                                       Natural Population
                Natural  -----------------------------------------------
    Atom  No    Charge         Core      Valence    Rydberg      Total
 -----------------------------------------------------------------------
      O    1   -0.77272      1.99976     6.76367    0.00929     8.77272
      O    2   -0.80165      1.99975     6.79188    0.01002     8.80165
      O    3   -0.66036      1.99961     6.64327    0.01747     8.66036
      H    4    0.43064      0.00000     0.56274    0.00662     0.56936
      C    5    0.76327      1.99945     3.16408    0.07320     5.23673
      C    6    0.05411      1.99888     3.91663    0.03039     5.94589
      H    7    0.16203      0.00000     0.83104    0.00693     0.83797
      C    8   -0.52216      1.99890     4.50641    0.01685     6.52216
      H    9    0.22587      0.00000     0.76486    0.00927     0.77413
      H   10    0.19503      0.00000     0.79828    0.00669     0.80497
      C   11    0.86115      1.99945     3.08268    0.05673     5.13885
      O   12   -0.70271      1.99965     6.67999    0.02306     8.70271
      H   13    0.39386      0.00000     0.59782    0.00832     0.60614
      O   14   -0.62637      1.99971     6.61559    0.01106     8.62637
 =======================================================================
   * Total *   -1.00000     17.99516    51.71895    0.28589    70.00000

 ******   10 imaginary frequencies (negative Signs) ******

                      1                      2                      3
                      A                      A                      A
 Frequencies --  -2630.2627             -2147.3169             -2006.0625
 Red. masses --      1.0683                 1.0954                 1.0773
 Frc consts  --      4.3546                 2.9758                 2.5542
 IR Inten    --    121.8880               130.4516               101.4184

                      4                      5                      6
                      A                      A                      A
 Frequencies --  -1579.2316             -1145.9042              -634.5921
 Red. masses --      1.0772                 1.0482                 1.2284
 Frc consts  --      1.5828                 0.8110                 0.2914
 IR Inten    --    204.9063                 2.7482                13.7653

                      7                      8                      9
                      A                      A                      A
 Frequencies --   -498.1922              -398.4318              -206.3406
 Red. masses --      1.1746                 1.4161                 4.2915
 Frc consts  --      0.1718                 0.1324                 0.1077
 IR Inten    --     11.1947                 1.5141                 1.6022

                     10                     11                     12
                      A                      A                      A
 Frequencies --    -93.0012               146.0468               215.5608
 Red. masses --     12.1679                 8.7555                 8.6710
 Frc consts  --      0.0620                 0.1100                 0.2374
 IR Inten    --      1.2438                 4.3500                 4.5620

                     13                     14                     15
                      A                      A                      A
 Frequencies --    270.0696               391.8756               499.8444
 Red. masses --      8.6379                 7.3613                 6.8454
 Frc consts  --      0.3712                 0.6660                 1.0077
 IR Inten    --      8.7744                 3.5846                 6.7151

                     16                     17                     18
                      A                      A                      A
 Frequencies --    554.8177               700.3848               745.9787
 Red. masses --      4.0170                 7.1067                 4.9497
 Frc consts  --      0.7285                 2.0540                 1.6229
 IR Inten    --      4.2727                73.0051                 1.9441

                     19                     20                     21
                      A                      A                      A
 Frequencies --    838.5545               859.8751               869.6116
 Red. masses --      5.4257                 1.4885                 2.3599
 Frc consts  --      2.2479                 0.6484                 1.0515
 IR Inten    --     31.6289                18.8712                 5.0503

                     22                     23                     24
                      A                      A                      A
 Frequencies --    895.1080               917.9484               989.1658
 Red. masses --      2.8441                 2.8265                 5.2975
 Frc consts  --      1.3426                 1.4032                 3.0539
 IR Inten    --     11.9064                 7.1554                 8.8840

                     25                     26                     27
                      A                      A                      A
 Frequencies --   1050.3164              1137.1384              1193.5711
 Red. masses --      4.5324                 8.9388                 6.9657
 Frc consts  --      2.9459                 6.8101                 5.8467
 IR Inten    --     17.3724                21.1009                35.8284

                     28                     29                     30
                      A                      A                      A
 Frequencies --   1395.4814              1466.6739              1768.8952
 Red. masses --     11.6693                13.0156                12.7069
 Frc consts  --     13.3889                16.4960                23.4257
 IR Inten    --    346.2745               208.7150               441.3557

                     31                     32                     33
                      A                      A                      A
 Frequencies --   1941.0646              4375.9316              4423.2175
 Red. masses --     11.8877                 1.0872                 1.0604
 Frc consts  --     26.3894                12.2660                12.2239
 IR Inten    --    290.2724                 8.5039                16.5744

                     34                     35                     36
                      A                      A                      A
 Frequencies --   4546.0477              6297.1542              7186.2769
 Red. masses --      1.1066                 1.0667                 1.0670
 Frc consts  --     13.4743                24.9208                32.4644
 IR Inten    --      4.3228                80.2660                50.1137

 - Thermochemistry -
 -------------------
 Temperature   298.150 Kelvin.  Pressure   1.00000 Atm.
 Atom     1 has atomic number  8 and mass  15.99491

 Molecular mass:   133.01370 amu.
 Principal axes and moments of inertia in atomic units:
                           1         2         3
     Eigenvalues --   522.013861996.384212180.26544
           X            0.99992  -0.00785  -0.01032
           Y            0.00846   0.99809   0.06122
           Z            0.00982  -0.06130   0.99807
 This molecule is an asymmetric top.
 Rotational symmetry number  1.
 Warning -- assumption of classical behavior for rotation
           may cause significant error
 Rotational temperatures (Kelvin)      0.16592     0.04339     0.03973
 Rotational constants (GHZ):           3.45727     0.90400     0.82776
   10 imaginary frequencies ignored.
 Zero-point vibrational energy     273206.8 (Joules/Mol)
                                   65.29799 (Kcal/Mol)
 Warning -- explicit consideration of   6 degrees of freedom as
           vibrations may cause significant error
 Vibrational temperatures:    210.13   310.14   388.57   563.82   719.16
          (Kelvin)            798.26  1007.70  1073.30  1206.49  1237.17
                             1251.18  1287.86  1320.72  1423.19  1511.17
                             1636.09  1717.28  2007.79  2110.22  2545.05
                             2792.76  6295.99  6364.02  6540.75  9060.20
                            10339.45

 Zero-point correction=                           0.104059 (Hartree/Particle)
 Thermal correction to Energy=                    0.109893
 Thermal correction to Enthalpy=                  0.110838
 Thermal correction to Gibbs Free Energy=         0.072865
 Sum of electronic and zero-point Energies=           -530.428152
 Sum of electronic and thermal Energies=              -530.422317
 Sum of electronic and thermal Enthalpies=            -530.421373
 Sum of electronic and thermal Free Energies=         -530.459345

                     E (Thermal)             CV                S
                      KCal/Mol        Cal/Mol-Kelvin    Cal/Mol-Kelvin
 Total                   68.959             20.934             79.919
 Electronic               0.000              0.000              0.000
 Translational            0.889              2.981             40.568
 Rotational               0.889              2.981             29.209
 Vibrational             67.182             14.972             10.142
 Vibration     1          0.617              1.907              2.723
 Vibration     2          0.645              1.817              1.996
 Vibration     3          0.674              1.728              1.596
 Vibration     4          0.759              1.488              0.993
 Vibration     5          0.855              1.250              0.659
 Vibration     6          0.910              1.129              0.534

 Normal termination of Gaussian 16 at Mon Mar  6 10:26:34 2023.
