 Gaussian 16, Revision C.01,
 Gaussian 16:  ES64L-G16RevC.01  3-Jul-2019

 ----------------------------------------------------------------------
 #p pop=(regular,nbo,savenbos) freq=noraman def2svp empiricaldispersion
 =gd3bj output=wfx pbe1pbe
 ----------------------------------------------------------------------

 ----------------------------------------
 BEQLOY_Complex_1_Ligand_0_NN_Cu_oriented
 ----------------------------------------
 Symbolic Z-matrix:
 Charge =  0 Multiplicity = 1

                         Standard orientation:
 ---------------------------------------------------------------------
 Center     Atomic      Atomic             Coordinates (Angstroms)
 Number     Number       Type             X           Y           Z
 ---------------------------------------------------------------------
      1          7           0       -1.524078   -1.062992    0.701920
      2          6           0       -2.963888   -0.753593    0.760291
      3          1           0       -3.167636   -0.307720    1.620160
      4          6           0       -3.402291    0.153181   -0.391213
      5          1           0       -3.323642   -0.334890   -1.248732
      6          1           0       -4.349158    0.413796   -0.268619
      7          6           0       -2.527854    1.394810   -0.425213
      8          1           0       -2.761716    1.937659   -1.218700
      9          1           0       -2.703693    1.941455    0.381498
     10          7           0       -1.087105    1.049971   -0.477083
     11          6           0       -0.312204    2.295938   -0.360339
     12          1           0       -0.557227    2.756312    0.481307
     13          1           0       -0.542839    2.895500   -1.114411
     14          6           0       -0.745519    0.166417    0.659071
     15          1           0       -0.938025    0.671882    1.499524
     16          6           0        0.288680   -2.299773   -0.353304
     17          1           0        0.506557   -2.936523   -1.079443
     18          6           0       -1.190922   -1.991089   -0.375483
     19          1           0       -1.434509   -1.591321   -1.247159
     20          1           0       -1.707337   -2.828974   -0.264381
     21          7           0        1.086103   -1.054228   -0.529453
     22          6           0        2.542216   -1.419242   -0.411095
     23          1           0        2.803436   -1.983426   -1.182060
     24          1           0        2.683745   -1.945306    0.415362
     25          6           0        1.182774    2.029157   -0.369644
     26          1           0        1.451953    1.674165   -1.253361
     27          1           0        1.672639    2.875979   -0.214980
     28          7           0        1.526632    1.060224    0.678914
     29          6           0        2.965577    0.752979    0.747238
     30          1           0        3.165847    0.330089    1.619723
     31          1           0        3.481510    1.596652    0.693933
     32          6           0        3.414524   -0.179386   -0.375006
     33          1           0        3.355134    0.294211   -1.242434
     34          1           0        4.358820   -0.440875   -0.231820
     35          6           0        0.748456   -0.147868    0.647539
     36          1           0        0.952872   -0.656788    1.484144
     37          1           0        0.525436   -2.724762    0.508103
     38          1           0       -3.480328   -1.597126    0.725226
 ---------------------------------------------------------------------

 SCF Done:  E(RPBE1PBE) =  -688.042185625     A.U. after   12 cycles

 The electronic state is 1-A.
 Alpha  occ. eigenvalues --  -14.36937 -14.36876 -14.36575 -14.36430 -10.25717
 Alpha  occ. eigenvalues --  -10.25685 -10.22566 -10.22517 -10.22225 -10.22188
 Alpha  occ. eigenvalues --  -10.22135 -10.22044 -10.21870 -10.21712 -10.19773
 Alpha  occ. eigenvalues --  -10.19713  -0.98393  -0.94249  -0.91564  -0.87959
 Alpha  occ. eigenvalues --   -0.81878  -0.78689  -0.78443  -0.75639  -0.68819
 Alpha  occ. eigenvalues --   -0.67615  -0.67412  -0.66402  -0.62867  -0.62063
 Alpha  occ. eigenvalues --   -0.57916  -0.55724  -0.52570  -0.50655  -0.50544
 Alpha  occ. eigenvalues --   -0.50407  -0.50292  -0.47343  -0.46276  -0.46182
 Alpha  occ. eigenvalues --   -0.45200  -0.44145  -0.42972  -0.42681  -0.42476
 Alpha  occ. eigenvalues --   -0.40911  -0.40139  -0.39158  -0.38454  -0.37276
 Alpha  occ. eigenvalues --   -0.37199  -0.36509  -0.36421  -0.34823  -0.33787
 Alpha  occ. eigenvalues --   -0.33498  -0.30897  -0.23130  -0.22631  -0.20838
 Alpha  occ. eigenvalues --   -0.20620
 Alpha virt. eigenvalues --    0.08057   0.08633   0.09962   0.10229   0.11211
 Alpha virt. eigenvalues --    0.12066   0.12696   0.13908   0.14007   0.14892
 Alpha virt. eigenvalues --    0.14972   0.15424   0.15639   0.16102   0.17274

 Mulliken charges:
               1
     1  N   -0.465687
     2  C    0.222280
     3  H   -0.027360
     4  C    0.044314
     5  H   -0.004159
     6  H   -0.017150
     7  C    0.221992
     8  H   -0.018599
     9  H   -0.052727
    10  N   -0.476421
    11  C    0.223219
    12  H   -0.049471
    13  H   -0.025966
    14  C    0.272964
    15  H   -0.052489
    16  C    0.229997
    17  H   -0.027202
    18  C    0.280401
    19  H   -0.030315
    20  H   -0.028996
    21  N   -0.479409
    22  C    0.214973
    23  H   -0.017572
    24  H   -0.048964
    25  C    0.287853
    26  H   -0.029664
    27  H   -0.027825
    28  N   -0.468936
    29  C    0.221945
    30  H   -0.026003
    31  H   -0.022155
    32  C    0.048301
    33  H   -0.005445
    34  H   -0.016967
    35  C    0.266924
    36  H   -0.045850
    37  H   -0.048230
    38  H   -0.021602
 Sum of Mulliken charges =  -0.00000

 Dipole moment (field-independent basis, Debye):
    X=             -0.0048    Y=              0.1136    Z=             -0.0871  Tot=              0.1432
 Quadrupole moment (field-independent basis, Debye-Ang):
   XX=            -86.5113   YY=            -91.5606   ZZ=           -100.9224
   XY=             -0.7408   XZ=              0.2534   YZ=             -0.0932

  Exact polarizability:     157.954       0.267     136.282      -0.034       0.228     104.825
 Approx polarizability:     188.929       1.058     182.880       0.023       0.396     163.772

 Summary of Natural Population Analysis:

                                       Natural Population
                Natural  -----------------------------------------------
    Atom  No    Charge         Core      Valence    Rydberg      Total
 -----------------------------------------------------------------------
      N    1   -0.57194      1.99934     5.55847    0.01413     7.57194
      C    2   -0.15512      1.99910     4.13792    0.01809     6.15512
      H    3    0.18382      0.00000     0.81241    0.00377     0.81618
      C    4   -0.39781      1.99913     4.38737    0.01131     6.39781
      H    5    0.19198      0.00000     0.80408    0.00394     0.80802
      H    6    0.19923      0.00000     0.79731    0.00346     0.80077
      C    7   -0.15981      1.99908     4.14363    0.01709     6.15981
      H    8    0.19087      0.00000     0.80596    0.00317     0.80913
      H    9    0.15549      0.00000     0.83787    0.00665     0.84451
      N   10   -0.58591      1.99936     5.57119    0.01537     7.58591
      C   11   -0.16516      1.99909     4.14909    0.01698     6.16516
      H   12    0.16057      0.00000     0.83223    0.00720     0.83943
      H   13    0.19454      0.00000     0.80230    0.00315     0.80546
      C   14    0.18842      1.99895     3.78572    0.02691     5.81158
      H   15    0.17835      0.00000     0.81338    0.00827     0.82165
      C   16   -0.16612      1.99908     4.15032    0.01671     6.16612
      H   17    0.19310      0.00000     0.80375    0.00315     0.80690
      C   18   -0.16499      1.99909     4.14833    0.01757     6.16499
      H   19    0.17651      0.00000     0.81720    0.00630     0.82349
      H   20    0.19054      0.00000     0.80652    0.00294     0.80946
      N   21   -0.58846      1.99943     5.57376    0.01528     7.58846
      C   22   -0.16134      1.99907     4.14567    0.01659     6.16134
      H   23    0.19054      0.00000     0.80632    0.00313     0.80946
      H   24    0.15688      0.00000     0.83674    0.00639     0.84312
      C   25   -0.15954      1.99910     4.14343    0.01701     6.15954
      H   26    0.17496      0.00000     0.81904    0.00600     0.82504
      H   27    0.19005      0.00000     0.80703    0.00293     0.80995
      N   28   -0.57224      1.99931     5.55905    0.01388     7.57224
      C   29   -0.15411      1.99910     4.13702    0.01799     6.15411
      H   30    0.18340      0.00000     0.81282    0.00378     0.81660
      H   31    0.18968      0.00000     0.80729    0.00303     0.81032
      C   32   -0.39867      1.99913     4.38823    0.01132     6.39867
      H   33    0.19244      0.00000     0.80349    0.00406     0.80756
      H   34    0.19925      0.00000     0.79725    0.00350     0.80075
      C   35    0.18700      1.99895     3.78735    0.02670     5.81300
      H   36    0.18141      0.00000     0.81065    0.00794     0.81859
      H   37    0.16293      0.00000     0.83006    0.00701     0.83707
      H   38    0.18927      0.00000     0.80769    0.00304     0.81073
 =======================================================================
   * Total *    0.00000     31.98632    89.63794    0.37574   122.00000

 ******   20 imaginary frequencies (negative Signs) ******

                      1                      2                      3
                      A                      A                      A
 Frequencies --   -929.6618              -926.4526              -903.0981
 Red. masses --      1.0407                 1.0578                 1.0382
 Frc consts  --      0.5299                 0.5349                 0.4989
 IR Inten    --      2.6000                 2.3824                 3.5272

                      4                      5                      6
                      A                      A                      A
 Frequencies --   -896.5264              -877.6023              -873.8247
 Red. masses --      1.0546                 1.0346                 1.0544
 Frc consts  --      0.4994                 0.4695                 0.4744
 IR Inten    --      2.0398                 0.1861                 1.1225

                      7                      8                      9
                      A                      A                      A
 Frequencies --   -872.3242              -868.7206              -865.2071
 Red. masses --      1.0584                 1.0695                 1.0590
 Frc consts  --      0.4745                 0.4755                 0.4671
 IR Inten    --      1.9546                 3.9415                 1.0776

                     10                     11                     12
                      A                      A                      A
 Frequencies --   -857.3748              -375.5440              -358.0842
 Red. masses --      1.0732                 1.9982                 1.9274
 Frc consts  --      0.4648                 0.1660                 0.1456
 IR Inten    --      0.2407                 1.3199                 0.7169

                     13                     14                     15
                      A                      A                      A
 Frequencies --   -330.2896              -307.2310              -283.2947
 Red. masses --      1.8497                 1.5813                 1.7839
 Frc consts  --      0.1189                 0.0879                 0.0844
 IR Inten    --      0.0263                 0.0502                 0.1604

                     16                     17                     18
                      A                      A                      A
 Frequencies --   -260.5332              -243.7561              -116.5581
 Red. masses --      2.0010                 2.4472                 1.9434
 Frc consts  --      0.0800                 0.0857                 0.0156
 IR Inten    --      0.7172                 2.1984                 0.1002

                     19                     20                     21
                      A                      A                      A
 Frequencies --   -110.0807               -67.8184                77.5168
 Red. masses --      1.9282                 1.6329                 1.7027
 Frc consts  --      0.0138                 0.0044                 0.0060
 IR Inten    --      0.4987                 1.5210                 0.4101

                     22                     23                     24
                      A                      A                      A
 Frequencies --    232.4747               295.3171               399.1919
 Red. masses --      3.3994                 2.1017                 2.0604
 Frc consts  --      0.1082                 0.1080                 0.1934
 IR Inten    --      0.0828                 0.2257                 1.3703

                     25                     26                     27
                      A                      A                      A
 Frequencies --    440.8758               475.4878               503.4458
 Red. masses --      1.5787                 1.6605                 2.2990
 Frc consts  --      0.1808                 0.2212                 0.3433
 IR Inten    --      1.5981                10.6394                 2.0059

                     28                     29                     30
                      A                      A                      A
 Frequencies --    535.5085               552.2538               613.2684
 Red. masses --      2.1374                 2.3094                 1.6712
 Frc consts  --      0.3611                 0.4150                 0.3703
 IR Inten    --      0.7763                 0.9384                 6.3885

                     31                     32                     33
                      A                      A                      A
 Frequencies --    647.3800               652.9471               668.6374
 Red. masses --      1.4587                 1.7705                 1.5490
 Frc consts  --      0.3602                 0.4447                 0.4080
 IR Inten    --      0.6291                 1.8209                13.7928

                     34                     35                     36
                      A                      A                      A
 Frequencies --    686.4501               701.7342               703.2935
 Red. masses --      1.5043                 1.5531                 1.3808
 Frc consts  --      0.4176                 0.4506                 0.4024
 IR Inten    --      1.5237                 3.1440                 5.9458

                     37                     38                     39
                      A                      A                      A
 Frequencies --    735.9786               743.6097               761.0213
 Red. masses --      1.7370                 1.6326                 1.5774
 Frc consts  --      0.5543                 0.5319                 0.5382
 IR Inten    --      0.6813                 2.1856                 9.3060

                     40                     41                     42
                      A                      A                      A
 Frequencies --    793.7748               795.5504               798.8059
 Red. masses --      1.6882                 1.7627                 1.4358
 Frc consts  --      0.6267                 0.6573                 0.5398
 IR Inten    --      0.6108                 9.0184                 1.9429

                     43                     44                     45
                      A                      A                      A
 Frequencies --    824.0632               831.9457               861.7206
 Red. masses --      2.6728                 1.7117                 1.7575
 Frc consts  --      1.0694                 0.6980                 0.7689
 IR Inten    --      1.5186                 3.6259                 0.3875

                     46                     47                     48
                      A                      A                      A
 Frequencies --    886.8059               888.4395               904.3936
 Red. masses --      1.7660                 1.8767                 1.9451
 Frc consts  --      0.8183                 0.8728                 0.9374
 IR Inten    --      1.6601                 0.3198                 2.8389

                     49                     50                     51
                      A                      A                      A
 Frequencies --    916.3893               921.9903               934.9697
 Red. masses --      1.8620                 2.9562                 1.9572
 Frc consts  --      0.9213                 1.4806                 1.0081
 IR Inten    --      5.1993                 3.1068                 1.8167

                     52                     53                     54
                      A                      A                      A
 Frequencies --    952.3304               957.9685               966.2703
 Red. masses --      1.8680                 2.2329                 2.9964
 Frc consts  --      0.9982                 1.2073                 1.6484
 IR Inten    --      4.7338                 2.0223                17.3386

                     55                     56                     57
                      A                      A                      A
 Frequencies --    979.5426               987.9695               996.1866
 Red. masses --      1.9274                 1.8135                 2.8540
 Frc consts  --      1.0896                 1.0429                 1.6687
 IR Inten    --     47.6768                 2.1633                29.1882

                     58                     59                     60
                      A                      A                      A
 Frequencies --   1033.4909              1044.8219              1061.4324
 Red. masses --      2.9579                 2.9969                 2.9745
 Frc consts  --      1.8614                 1.9276                 1.9744
 IR Inten    --     21.8482                10.9133                 9.5190

                     61                     62                     63
                      A                      A                      A
 Frequencies --   1072.8429              1075.7765              1078.3190
 Red. masses --      2.1455                 3.2472                 2.7970
 Frc consts  --      1.4550                 2.2141                 1.9162
 IR Inten    --      7.3767                22.2931                 8.9718

                     64                     65                     66
                      A                      A                      A
 Frequencies --   1092.1341              1096.8970              1104.8883
 Red. masses --      2.5490                 1.3805                 2.2997
 Frc consts  --      1.7913                 0.9787                 1.6541
 IR Inten    --      4.8211                15.2150                 7.8518

                     67                     68                     69
                      A                      A                      A
 Frequencies --   1112.0807              1123.6968              1131.4663
 Red. masses --      1.3483                 1.7861                 1.1841
 Frc consts  --      0.9825                 1.3288                 0.8931
 IR Inten    --      5.1163                23.9468                 5.4022

                     70                     71                     72
                      A                      A                      A
 Frequencies --   1133.8377              1137.1708              1139.2704
 Red. masses --      1.1333                 1.1626                 1.3258
 Frc consts  --      0.8584                 0.8858                 1.0138
 IR Inten    --      0.9749                 9.6688                11.7347

                     73                     74                     75
                      A                      A                      A
 Frequencies --   1140.7538              1143.0302              1157.5885
 Red. masses --      1.6493                 1.3258                 1.5384
 Frc consts  --      1.2646                 1.0206                 1.2146
 IR Inten    --      7.1910                 4.9514                29.6092

                     76                     77                     78
                      A                      A                      A
 Frequencies --   1170.6013              1176.4412              1186.3444
 Red. masses --      2.7415                 3.1307                 3.4838
 Frc consts  --      2.2134                 2.5529                 2.8888
 IR Inten    --     32.8193                10.8905                 8.8486

                     79                     80                     81
                      A                      A                      A
 Frequencies --   1195.3893              1207.8010              1223.7711
 Red. masses --      4.0548                 5.2182                 3.4007
 Frc consts  --      3.4138                 4.4850                 3.0007
 IR Inten    --     21.5192                34.9979                18.6529

                     82                     83                     84
                      A                      A                      A
 Frequencies --   1259.3997              1266.4183              1316.9156
 Red. masses --      3.0162                 5.2807                 4.6860
 Frc consts  --      2.8187                 4.9899                 4.7881
 IR Inten    --     53.6239                91.8673                43.3940

                     85                     86                     87
                      A                      A                      A
 Frequencies --   1326.3891              1350.3096              4102.8358
 Red. masses --      5.5499                 5.8205                 1.0868
 Frc consts  --      5.7527                 6.2529                10.7784
 IR Inten    --      9.9915                19.6219                13.5698

                     88                     89                     90
                      A                      A                      A
 Frequencies --   4109.9189              4171.1488              4172.8033
 Red. masses --      1.0870                 1.0598                 1.0596
 Frc consts  --     10.8179                10.8641                10.8708
 IR Inten    --     45.0451                 5.3660                91.6395

                     91                     92                     93
                      A                      A                      A
 Frequencies --   4174.1454              4181.3431              4183.8096
 Red. masses --      1.0591                 1.0586                 1.0596
 Frc consts  --     10.8721                10.9050                10.9280
 IR Inten    --     19.2122                18.5806                25.6129

                     94                     95                     96
                      A                      A                      A
 Frequencies --   4184.6475              4185.2255              4190.4255
 Red. masses --      1.0600                 1.0600                 1.0601
 Frc consts  --     10.9368                10.9393                10.9675
 IR Inten    --     42.6547                11.7727                35.5151

                     97                     98                     99
                      A                      A                      A
 Frequencies --   4190.6641              4195.3709              4281.7592
 Red. masses --      1.0608                 1.0608                 1.1087
 Frc consts  --     10.9760                11.0004                11.9755
 IR Inten    --     16.8238                24.8871                13.7888

                    100                    101                    102
                      A                      A                      A
 Frequencies --   4285.3902              4288.0841              4290.1582
 Red. masses --      1.1094                 1.1085                 1.1094
 Frc consts  --     12.0035                12.0087                12.0303
 IR Inten    --     16.8840                11.1215                 2.8119

                    103                    104                    105
                      A                      A                      A
 Frequencies --   4293.2878              4295.0088              4295.7846
 Red. masses --      1.1097                 1.1096                 1.1096
 Frc consts  --     12.0514                12.0595                12.0648
 IR Inten    --     10.5793                 6.8184                21.6127

                    106                    107                    108
                      A                      A                      A
 Frequencies --   4301.2574              4303.7741              4309.6140
 Red. masses --      1.1098                 1.1085                 1.1088
 Frc consts  --     12.0971                12.0977                12.1335
 IR Inten    --      6.0231                16.4646                15.3083

 - Thermochemistry -
 -------------------
 Temperature   298.150 Kelvin.  Pressure   1.00000 Atm.
 Atom     1 has atomic number  7 and mass  14.00307

 Molecular mass:   222.18445 amu.
 Principal axes and moments of inertia in atomic units:
                           1         2         3
     Eigenvalues --  1809.760753649.579744874.33799
           X            0.99999  -0.00539   0.00033
           Y            0.00539   0.99999  -0.00035
           Z           -0.00033   0.00036   1.00000
 This molecule is an asymmetric top.
 Rotational symmetry number  1.
 Warning -- assumption of classical behavior for rotation
           may cause significant error
 Rotational temperatures (Kelvin)      0.04786     0.02373     0.01777
 Rotational constants (GHZ):           0.99723     0.49451     0.37025
   20 imaginary frequencies ignored.
 Zero-point vibrational energy     916167.5 (Joules/Mol)
                                  218.96929 (Kcal/Mol)
 Warning -- explicit consideration of  10 degrees of freedom as
           vibrations may cause significant error
 Vibrational temperatures:    111.53   334.48   424.90   574.35   634.32
          (Kelvin)            684.12   724.35   770.48   794.57   882.36
                              931.44   939.45   962.02   987.65  1009.64
                             1011.88  1058.91  1069.89  1094.94  1142.06
                             1144.62  1149.30  1185.64  1196.98  1239.82
                             1275.92  1278.27  1301.22  1318.48  1326.54
                             1345.21  1370.19  1378.30  1390.25  1409.34
                             1421.47  1433.29  1486.96  1503.27  1527.16
                             1543.58  1547.80  1551.46  1571.34  1578.19
                             1589.69  1600.04  1616.75  1627.93  1631.34
                             1636.14  1639.16  1641.29  1644.57  1665.51
                             1684.23  1692.64  1706.88  1719.90  1737.76
                             1760.73  1812.00  1822.09  1894.75  1908.38
                             1942.79  5903.07  5913.26  6001.35  6003.73
                             6005.66  6016.02  6019.57  6020.77  6021.61
                             6029.09  6029.43  6036.20  6160.50  6165.72
                             6169.60  6172.58  6177.08  6179.56  6180.68
                             6188.55  6192.17  6200.57

 Zero-point correction=                           0.348950 (Hartree/Particle)
 Thermal correction to Energy=                    0.357713
 Thermal correction to Enthalpy=                  0.358657
 Thermal correction to Gibbs Free Energy=         0.314570
 Sum of electronic and zero-point Energies=           -687.693236
 Sum of electronic and thermal Energies=              -687.684472
 Sum of electronic and thermal Enthalpies=            -687.683528
 Sum of electronic and thermal Free Energies=         -687.727616

                     E (Thermal)             CV                S
                      KCal/Mol        Cal/Mol-Kelvin    Cal/Mol-Kelvin
 Total                  224.468             43.691             92.790
 Electronic               0.000              0.000              0.000
 Translational            0.889              2.981             42.098
 Rotational               0.889              2.981             31.843
 Vibrational            222.691             37.729             18.849
 Vibration     1          0.599              1.964              3.953
 Vibration     2          0.653              1.791              1.860
 Vibration     3          0.690              1.682              1.443
 Vibration     4          0.765              1.472              0.966
 Vibration     5          0.801              1.381              0.824
 Vibration     6          0.832              1.304              0.722
 Vibration     7          0.859              1.242              0.650
 Vibration     8          0.891              1.171              0.575
 Vibration     9          0.908              1.135              0.540
 Vibration    10          0.973              1.004              0.427

 1\1\GINC-JST020\Freq\RPBE1PBE\def2SVP\C12H22N4\LAPLAZA\04-Mar-2023\0\\
 #p pop=(regular,nbo,savenbos) freq=noraman def2svp empiricaldispersion
 =gd3bj output=wfx pbe1pbe\\BEQLOY_Complex_1_Ligand_0_NN_Cu_oriented\\0
 ,1\N,0.3970783,-3.42866858,1.58644333\C,1.59065052,-3.83893622,2.34752
 964\H,1.89658026,-4.72288611,2.02390948\C,2.73314519,-2.8310376,2.2087
 9973\H,2.48243075,-1.98003724,2.64775184\H,3.5439495,-3.18252184,2.654
 40267\C,3.0212037,-2.58448101,0.73785766\H,3.70371108,-1.8731328,0.653
 21264\H,3.38871099,-3.41013439,0.33318623\N,1.80074047,-2.18025569,0.\

 Normal termination of Gaussian 16 at Sat Mar  4 12:28:27 2023.
