 Gaussian 16, Revision C.01,
 Gaussian 16:  ES64L-G16RevC.01  3-Jul-2019

 ----------------------------------------------------------------------
 #p pop=(regular,nbo,savenbos) freq=noraman def2svp empiricaldispersion
 =gd3bj output=wfx pbe1pbe
 ----------------------------------------------------------------------

 ----------------------------------------
 BEZZOW_Complex_3_Ligand_2_OO_Cu_oriented
 ----------------------------------------
 Symbolic Z-matrix:
 Charge = -1 Multiplicity = 1

                         Standard orientation:
 ---------------------------------------------------------------------
 Center     Atomic      Atomic             Coordinates (Angstroms)
 Number     Number       Type             X           Y           Z
 ---------------------------------------------------------------------
      1          8           0       -1.378770    1.084304   -0.273313
      2          8           0        1.139527    1.238131    0.002757
      3          6           0        0.622085   -0.034910    0.364021
      4          6           0        1.358308   -1.118411   -0.294550
      5          1           0        2.273424   -1.106452   -0.005084
      6          1           0        1.323268   -0.997175   -1.246090
      7          1           0        1.775013    1.507926    0.371946
      8          8           0       -1.472794   -1.092150    0.148279
      9          6           0       -0.873225   -0.037309    0.028545
     10          1           0        0.961240   -1.960550   -0.064154
     11          1           0        0.720344   -0.142255    1.333502
 ---------------------------------------------------------------------

 SCF Done:  E(RPBE1PBE) =  -342.286431867     A.U. after   14 cycles

 The electronic state is 1-A.
 Alpha  occ. eigenvalues --  -19.00152 -18.91607 -18.89944 -10.07509 -10.07341
 Alpha  occ. eigenvalues --  -10.01938  -0.89517  -0.81244  -0.70932  -0.63856
 Alpha  occ. eigenvalues --   -0.50760  -0.38532  -0.34609  -0.28778  -0.26804
 Alpha  occ. eigenvalues --   -0.25175  -0.21462  -0.17936  -0.17004  -0.15723
 Alpha  occ. eigenvalues --   -0.11499  -0.02362  -0.02301  -0.00170
 Alpha virt. eigenvalues --    0.22230   0.27180   0.29409   0.30556   0.31147
 Alpha virt. eigenvalues --    0.33633   0.40251   0.43270   0.47878   0.53701
 Alpha virt. eigenvalues --    0.60001   0.64266   0.69342   0.70813   0.76322

 Mulliken charges:
               1
     1  O   -0.457088
     2  O   -0.228671
     3  C    0.067731
     4  C    0.193635
     5  H   -0.089112
     6  H   -0.049004
     7  H    0.022376
     8  O   -0.420740
     9  C    0.074587
    10  H   -0.048417
    11  H   -0.065296
 Sum of Mulliken charges =  -1.00000

 Dipole moment (field-independent basis, Debye):
    X=              6.7607    Y=             -0.7571    Z=              1.4398  Tot=              6.9537
 Quadrupole moment (field-independent basis, Debye-Ang):
   XX=            -46.6052   YY=            -45.3036   ZZ=            -35.4382
   XY=              0.9806   XZ=              1.0133   YZ=              2.6612

  Exact polarizability:      40.242      -1.693      42.605       0.888      -1.112      29.411
 Approx polarizability:      49.003      -1.139      65.069       1.667      -4.676      39.277

 Summary of Natural Population Analysis:

                                       Natural Population
                Natural  -----------------------------------------------
    Atom  No    Charge         Core      Valence    Rydberg      Total
 -----------------------------------------------------------------------
      O    1   -0.78962      1.99977     6.78068    0.00918     8.78962
      O    2   -0.71523      1.99961     6.69307    0.02255     8.71523
      C    3    0.05739      1.99891     3.91957    0.02413     5.94261
      C    4   -0.57690      1.99915     4.56609    0.01167     6.57690
      H    5    0.15401      0.00000     0.84087    0.00512     0.84599
      H    6    0.17764      0.00000     0.81695    0.00541     0.82236
      H    7    0.38951      0.00000     0.60276    0.00774     0.61049
      O    8   -0.79674      1.99973     6.78620    0.01080     8.79674
      C    9    0.77124      1.99946     3.15606    0.07324     5.22876
      H   10    0.19191      0.00000     0.80042    0.00768     0.80809
      H   11    0.13680      0.00000     0.85770    0.00551     0.86320
 =======================================================================
   * Total *   -1.00000     11.99663    35.82036    0.18301    48.00000

 ******    7 imaginary frequencies (negative Signs) ******

                      1                      2                      3
                      A                      A                      A
 Frequencies --  -2631.0765             -2262.8246             -1376.0297
 Red. masses --      1.0866                 1.0856                 1.0253
 Frc consts  --      4.4320                 3.2751                 1.1438
 IR Inten    --    139.5588                91.0580                 0.5814

                      4                      5                      6
                      A                      A                      A
 Frequencies --  -1024.8704              -988.5382              -387.8951
 Red. masses --      1.0901                 1.0949                 1.3916
 Frc consts  --      0.6746                 0.6304                 0.1234
 IR Inten    --      4.5593                 6.8573                 6.3935

                      7                      8                      9
                      A                      A                      A
 Frequencies --   -266.1455               294.6258               357.1305
 Red. masses --      4.2234                 1.7637                 2.3343
 Frc consts  --      0.1763                 0.0902                 0.1754
 IR Inten    --      1.2759                20.5454                 5.0886

                     10                     11                     12
                      A                      A                      A
 Frequencies --    473.5052               564.9698               652.7690
 Red. masses --      8.2306                 6.1025                 4.7776
 Frc consts  --      1.0873                 1.1476                 1.1994
 IR Inten    --      2.6436                 6.1341                 5.3401

                     13                     14                     15
                      A                      A                      A
 Frequencies --    815.5598               820.6264               874.3216
 Red. masses --      4.3067                 1.3791                 5.7663
 Frc consts  --      1.6877                 0.5472                 2.5971
 IR Inten    --     53.5388                17.4414                14.3304

                     16                     17                     18
                      A                      A                      A
 Frequencies --    941.2638               971.5554              1085.5259
 Red. masses --      1.6003                 1.1818                 2.2245
 Frc consts  --      0.8354                 0.6573                 1.5444
 IR Inten    --      2.4351                20.6628                10.0468

                     19                     20                     21
                      A                      A                      A
 Frequencies --   1162.0302              1290.9349              1461.5558
 Red. masses --      4.1845                 7.8574                12.4980
 Frc consts  --      3.3291                 7.7150                15.7297
 IR Inten    --     42.3159                46.5231               227.4502

                     22                     23                     24
                      A                      A                      A
 Frequencies --   1874.0953              4340.8546              4464.9811
 Red. masses --     12.9015                 1.0864                 1.0329
 Frc consts  --     26.6978                12.0617                12.1328
 IR Inten    --    456.4562                47.5110                30.3932

                     25                     26                     27
                      A                      A                      A
 Frequencies --   4659.9095              4683.7596              7132.8951
 Red. masses --      1.1058                 1.1058                 1.0677
 Frc consts  --     14.1470                14.2924                32.0046
 IR Inten    --     23.2060                 4.3551                36.9747

 - Thermochemistry -
 -------------------
 Temperature   298.150 Kelvin.  Pressure   1.00000 Atm.
 Atom     1 has atomic number  8 and mass  15.99491

 Molecular mass:    89.02387 amu.
 Principal axes and moments of inertia in atomic units:
                           1         2         3
     Eigenvalues --   332.96641 502.59786 780.93640
           X            0.99754  -0.07007  -0.00114
           Y            0.07008   0.99730   0.02202
           Z           -0.00041  -0.02205   0.99976
 This molecule is an asymmetric top.
 Rotational symmetry number  1.
 Rotational temperatures (Kelvin)      0.26013     0.17233     0.11091
 Rotational constants (GHZ):           5.42019     3.59083     2.31100
    7 imaginary frequencies ignored.
 Zero-point vibrational energy     232810.5 (Joules/Mol)
                                   55.64304 (Kcal/Mol)
 Warning -- explicit consideration of   4 degrees of freedom as
           vibrations may cause significant error
 Vibrational temperatures:    423.90   513.83   681.27   812.87   939.19
          (Kelvin)           1173.41  1180.70  1257.95  1354.27  1397.85
                             1561.83  1671.90  1857.37  2102.85  2696.41
                             6245.52  6424.11  6704.57  6738.89 10262.65

 Zero-point correction=                           0.088673 (Hartree/Particle)
 Thermal correction to Energy=                    0.093201
 Thermal correction to Enthalpy=                  0.094146
 Thermal correction to Gibbs Free Energy=         0.060479
 Sum of electronic and zero-point Energies=           -342.197759
 Sum of electronic and thermal Energies=              -342.193230
 Sum of electronic and thermal Enthalpies=            -342.192286
 Sum of electronic and thermal Free Energies=         -342.225953

                     E (Thermal)             CV                S
                      KCal/Mol        Cal/Mol-Kelvin    Cal/Mol-Kelvin
 Total                   58.485             15.959             70.857
 Electronic               0.000              0.000              0.000
 Translational            0.889              2.981             39.371
 Rotational               0.889              2.981             26.372
 Vibrational             56.707              9.998              5.114
 Vibration     1          0.689              1.684              1.447
 Vibration     2          0.732              1.561              1.135
 Vibration     3          0.830              1.309              0.728
 Vibration     4          0.921              1.107              0.514

 Normal termination of Gaussian 16 at Mon Mar  6 10:23:44 2023.
