 Gaussian 16, Revision C.01,
 Gaussian 16:  ES64L-G16RevC.01  3-Jul-2019

 ----------------------------------------------------------------------
 #p pop=(regular,nbo,savenbos) freq=noraman def2svp empiricaldispersion
 =gd3bj output=wfx pbe1pbe
 ----------------------------------------------------------------------

 ----------------------------------------
 BODXEY_Complex_5_Ligand_1_NN_Cu_oriented
 ----------------------------------------
 Symbolic Z-matrix:
 Charge =  0 Multiplicity = 1

                         Standard orientation:
 ---------------------------------------------------------------------
 Center     Atomic      Atomic             Coordinates (Angstroms)
 Number     Number       Type             X           Y           Z
 ---------------------------------------------------------------------
      1          7           0       -2.602796    0.665104    0.033419
      2          6           0       -0.718159   -0.891974   -0.308512
      3          1           0       -0.802692   -0.737401   -1.262719
      4          1           0       -0.487704   -1.827283   -0.191022
      5          6           0       -2.047315   -0.677305    0.300454
      6          1           0       -1.977493   -0.804379    1.259962
      7          1           0       -2.661757   -1.345129   -0.041437
      8          1           0       -3.330022    0.719902    0.494184
      9          1           0       -2.909250    0.727809   -0.788153
     10          7           0        0.210088    1.349438   -0.151766
     11          6           0        0.412237   -0.086446    0.178941
     12          1           0        0.402344   -0.152427    1.157462
     13          6           0        2.939280    0.114975    0.275667
     14          1           0        2.883134    0.125917    1.234829
     15          1           0        3.743483   -0.336106    0.007253
     16          1           0        2.955595    1.016130   -0.054246
     17          6           0        1.771872   -0.588987   -0.275702
     18          1           0        1.810245   -0.529910   -1.243559
     19          1           0        1.843849   -1.527921   -0.040959
     20          1           0        0.305928    1.454630   -0.928908
     21          1           0        0.825807    1.892796    0.200660
 ---------------------------------------------------------------------

 SCF Done:  E(RPBE1PBE) =  -307.574181005     A.U. after   12 cycles

 The electronic state is 1-A.
 Alpha  occ. eigenvalues --  -14.31093 -14.30361 -10.22216 -10.20974 -10.18298
 Alpha  occ. eigenvalues --  -10.18155 -10.17282  -0.92914  -0.91242  -0.81942
 Alpha  occ. eigenvalues --   -0.78916  -0.70201  -0.63645  -0.61174  -0.52470
 Alpha  occ. eigenvalues --   -0.51504  -0.49301  -0.48098  -0.46454  -0.44992
 Alpha  occ. eigenvalues --   -0.42404  -0.40655  -0.37603  -0.36716  -0.35967
 Alpha  occ. eigenvalues --   -0.34776  -0.32938  -0.24746  -0.20490
 Alpha virt. eigenvalues --    0.07809   0.09570   0.11479   0.12052   0.13693
 Alpha virt. eigenvalues --    0.15105   0.15983   0.16166   0.18421   0.19331
 Alpha virt. eigenvalues --    0.20702   0.20863   0.22299   0.23138   0.25218

 Mulliken charges:
               1
     1  N   -0.102795
     2  C    0.101193
     3  H   -0.047332
     4  H   -0.039784
     5  C    0.201907
     6  H   -0.044468
     7  H   -0.043873
     8  H    0.016774
     9  H    0.022383
    10  N   -0.025511
    11  C   -0.032068
    12  H   -0.045075
    13  C    0.192255
    14  H   -0.029676
    15  H   -0.024906
    16  H   -0.044609
    17  C    0.025217
    18  H   -0.035693
    19  H   -0.037909
    20  H   -0.029955
    21  H    0.023923
 Sum of Mulliken charges =  -0.00000

 Dipole moment (field-independent basis, Debye):
    X=              0.1012    Y=             -1.3492    Z=             -0.6206  Tot=              1.4886
 Quadrupole moment (field-independent basis, Debye-Ang):
   XX=            -38.9761   YY=            -46.1671   ZZ=            -42.8408
   XY=              3.0756   XZ=              0.7892   YZ=             -1.6883

  Exact polarizability:      68.834      -0.358      56.172       0.365      -0.266      49.391
 Approx polarizability:      76.126      -1.641      74.581       0.461      -1.134      68.415

 Summary of Natural Population Analysis:

                                       Natural Population
                Natural  -----------------------------------------------
    Atom  No    Charge         Core      Valence    Rydberg      Total
 -----------------------------------------------------------------------
      N    1   -0.77012      1.99935     5.74632    0.02445     7.77012
      C    2   -0.39232      1.99899     4.37797    0.01537     6.39232
      H    3    0.17923      0.00000     0.81571    0.00506     0.82077
      H    4    0.19195      0.00000     0.80427    0.00377     0.80805
      C    5   -0.13455      1.99905     4.12239    0.01310     6.13455
      H    6    0.16673      0.00000     0.82960    0.00367     0.83327
      H    7    0.15301      0.00000     0.84346    0.00353     0.84699
      H    8    0.30127      0.00000     0.69298    0.00575     0.69873
      H    9    0.30419      0.00000     0.69011    0.00570     0.69581
      N   10   -0.74418      1.99919     5.71531    0.02968     7.74418
      C   11    0.01039      1.99900     3.97239    0.01822     5.98961
      H   12    0.16762      0.00000     0.82698    0.00540     0.83238
      C   13   -0.54156      1.99920     4.53353    0.00882     6.54156
      H   14    0.17902      0.00000     0.81780    0.00318     0.82098
      H   15    0.18931      0.00000     0.80812    0.00257     0.81069
      H   16    0.17426      0.00000     0.82028    0.00546     0.82574
      C   17   -0.37181      1.99905     4.36062    0.01214     6.37181
      H   18    0.17377      0.00000     0.82094    0.00529     0.82623
      H   19    0.17970      0.00000     0.81559    0.00471     0.82030
      H   20    0.26726      0.00000     0.72684    0.00591     0.73274
      H   21    0.31682      0.00000     0.67857    0.00461     0.68318
 =======================================================================
   * Total *    0.00000     13.99381    43.81980    0.18639    58.00000

 ******   18 imaginary frequencies (negative Signs) ******

                      1                      2                      3
                      A                      A                      A
 Frequencies --  -2720.5924             -2324.1945             -1904.1110
 Red. masses --      1.0704                 1.0825                 1.0570
 Frc consts  --      4.6680                 3.4451                 2.2578
 IR Inten    --    141.2769                30.6521                75.3652

                      4                      5                      6
                      A                      A                      A
 Frequencies --  -1599.4841             -1394.8223             -1371.9871
 Red. masses --      1.1370                 1.0728                 1.0207
 Frc consts  --      1.7138                 1.2297                 1.1320
 IR Inten    --    119.1546               118.4588                11.9441

                      7                      8                      9
                      A                      A                      A
 Frequencies --  -1334.0594             -1101.5676             -1066.9284
 Red. masses --      1.0408                 1.0266                 1.0746
 Frc consts  --      1.0914                 0.7340                 0.7207
 IR Inten    --      6.4702                 0.4139                 4.5062

                     10                     11                     12
                      A                      A                      A
 Frequencies --  -1039.5113              -989.4092              -939.8423
 Red. masses --      1.0565                 1.0725                 1.1300
 Frc consts  --      0.6726                 0.6186                 0.5881
 IR Inten    --      3.1895                 8.2354                 0.4518

                     13                     14                     15
                      A                      A                      A
 Frequencies --   -512.4492              -415.4303              -381.1471
 Red. masses --      1.4661                 1.9960                 1.5728
 Frc consts  --      0.2268                 0.2030                 0.1346
 IR Inten    --      0.8666                 0.6648                 0.6539

                     16                     17                     18
                      A                      A                      A
 Frequencies --   -347.9899              -305.3830              -139.5670
 Red. masses --      1.3610                 1.6283                 2.0500
 Frc consts  --      0.0971                 0.0895                 0.0235
 IR Inten    --      4.8640                 0.2698                13.6158

                     19                     20                     21
                      A                      A                      A
 Frequencies --    337.4378               443.9157               491.4562
 Red. masses --      1.3186                 2.9769                 1.2093
 Frc consts  --      0.0885                 0.3456                 0.1721
 IR Inten    --      9.9329                 0.9501                14.6793

                     22                     23                     24
                      A                      A                      A
 Frequencies --    535.0429               577.2408               668.0665
 Red. masses --      1.5785                 1.7182                 1.4731
 Frc consts  --      0.2662                 0.3373                 0.3874
 IR Inten    --     39.1382                 0.8457                 6.8633

                     25                     26                     27
                      A                      A                      A
 Frequencies --    725.2630               738.5419               805.3879
 Red. masses --      1.4871                 1.6369                 1.9968
 Frc consts  --      0.4609                 0.5260                 0.7631
 IR Inten    --      3.4231                 5.9382                 1.9945

                     28                     29                     30
                      A                      A                      A
 Frequencies --    822.9857               846.9103               869.7007
 Red. masses --      1.8857                 1.6960                 1.7122
 Frc consts  --      0.7525                 0.7167                 0.7630
 IR Inten    --      5.6512                 1.4037                 0.3678

                     31                     32                     33
                      A                      A                      A
 Frequencies --    895.0722               940.0956               983.7518
 Red. masses --      1.7391                 2.1081                 1.2007
 Frc consts  --      0.8209                 1.0977                 0.6847
 IR Inten    --      1.0750                 4.0187                10.3580

                     34                     35                     36
                      A                      A                      A
 Frequencies --   1003.3732              1014.6108              1039.2620
 Red. masses --      1.1960                 1.3674                 1.2071
 Frc consts  --      0.7094                 0.8294                 0.7681
 IR Inten    --      9.5954                 1.5381                10.3299

                     37                     38                     39
                      A                      A                      A
 Frequencies --   1063.6150              1110.9591              1145.2091
 Red. masses --      1.1718                 2.1332                 3.6352
 Frc consts  --      0.7810                 1.5512                 2.8090
 IR Inten    --     12.1980                13.3753                15.9735

                     40                     41                     42
                      A                      A                      A
 Frequencies --   1174.0696              1245.8619              1291.5321
 Red. masses --      3.2485                 4.5550                 6.6141
 Frc consts  --      2.6383                 4.1656                 6.5003
 IR Inten    --      3.6907                16.4475                 2.8681

                     43                     44                     45
                      A                      A                      A
 Frequencies --   1402.5789              4341.1895              4405.5370
 Red. masses --      7.8943                 1.0872                 1.0606
 Frc consts  --      9.1499                12.0725                12.1285
 IR Inten    --      8.7673                18.0497                14.4955

                     46                     47                     48
                      A                      A                      A
 Frequencies --   4408.0666              4411.5077              4460.8444
 Red. masses --      1.0609                 1.0618                 1.0331
 Frc consts  --     12.1454                12.1746                12.1121
 IR Inten    --     16.1973                41.3117                12.1969

                     49                     50                     51
                      A                      A                      A
 Frequencies --   4522.0361              4525.8010              4529.8653
 Red. masses --      1.1068                 1.1069                 1.1077
 Frc consts  --     13.3345                13.3580                13.3924
 IR Inten    --      4.3195                18.3569                24.2125

                     52                     53                     54
                      A                      A                      A
 Frequencies --   4662.7819              4670.5914              5275.8548
 Red. masses --      1.1065                 1.1062                 1.0699
 Frc consts  --     14.1735                14.2174                17.5460
 IR Inten    --      5.6056                 5.5905                 4.6399

                     55                     56                     57
                      A                      A                      A
 Frequencies --   5508.4466              5805.5875              7246.4495
 Red. masses --      1.0672                 1.0777                 1.0747
 Frc consts  --     19.0791                21.4022                33.2502
 IR Inten    --      4.4727                 4.2429                 7.7973

 - Thermochemistry -
 -------------------
 Temperature   298.150 Kelvin.  Pressure   1.00000 Atm.
 Atom     1 has atomic number  7 and mass  14.00307

 Molecular mass:   102.11570 amu.
 Principal axes and moments of inertia in atomic units:
                           1         2         3
     Eigenvalues --   294.208351357.762781550.21914
           X            0.99997   0.00797   0.00227
           Y           -0.00796   0.99996  -0.00396
           Z           -0.00231   0.00394   0.99999
 This molecule is an asymmetric top.
 Rotational symmetry number  1.
 Rotational temperatures (Kelvin)      0.29440     0.06379     0.05587
 Rotational constants (GHZ):           6.13423     1.32920     1.16418
   18 imaginary frequencies ignored.
 Zero-point vibrational energy     543980.9 (Joules/Mol)
                                  130.01455 (Kcal/Mol)
 Warning -- explicit consideration of   5 degrees of freedom as
           vibrations may cause significant error
 Vibrational temperatures:    485.50   638.70   707.10   769.81   830.52
          (Kelvin)            961.20  1043.49  1062.60  1158.77  1184.09
                             1218.52  1251.31  1287.81  1352.59  1415.40
                             1443.63  1459.80  1495.27  1530.30  1598.42
                             1647.70  1689.22  1792.52  1858.23  2018.00
                             6246.00  6338.59  6342.22  6347.18  6418.16
                             6506.20  6511.62  6517.47  6708.70  6719.94
                             7590.78  7925.43  8352.95 10426.02

 Zero-point correction=                           0.207191 (Hartree/Particle)
 Thermal correction to Energy=                    0.212242
 Thermal correction to Enthalpy=                  0.213186
 Thermal correction to Gibbs Free Energy=         0.178015
 Sum of electronic and zero-point Energies=           -307.366990
 Sum of electronic and thermal Energies=              -307.361939
 Sum of electronic and thermal Enthalpies=            -307.360995
 Sum of electronic and thermal Free Energies=         -307.396166

                     E (Thermal)             CV                S
                      KCal/Mol        Cal/Mol-Kelvin    Cal/Mol-Kelvin
 Total                  133.184             21.168             74.024
 Electronic               0.000              0.000              0.000
 Translational            0.889              2.981             39.780
 Rotational               0.889              2.981             27.917
 Vibrational            131.406             15.206              6.326
 Vibration     1          0.718              1.601              1.224
 Vibration     2          0.803              1.374              0.814
 Vibration     3          0.847              1.269              0.680
 Vibration     4          0.890              1.173              0.576
 Vibration     5          0.934              1.080              0.490

 Normal termination of Gaussian 16 at Sat Mar  4 11:27:50 2023.
