 Gaussian 16, Revision C.01,
 Gaussian 16:  ES64L-G16RevC.01  3-Jul-2019

 ----------------------------------------------------------------------
 #p pop=(regular,nbo,savenbos) freq=noraman def2svp empiricaldispersion
 =gd3bj output=wfx pbe1pbe
 ----------------------------------------------------------------------

 ----------------------------------------
 BOTJUQ_Complex_2_Ligand_0_NN_Cu_oriented
 ----------------------------------------
 Symbolic Z-matrix:
 Charge =  0 Multiplicity = 1

                         Standard orientation:
 ---------------------------------------------------------------------
 Center     Atomic      Atomic             Coordinates (Angstroms)
 Number     Number       Type             X           Y           Z
 ---------------------------------------------------------------------
      1          7           0        1.879435    1.040434   -0.241362
      2          6           0        3.667772   -0.609418   -0.099804
      3          6           0        3.231097    0.723756   -0.216338
      4          6           0        4.171821    1.764801   -0.264156
      5          1           0        3.883359    2.645800   -0.343203
      6          6           0        5.505430    1.493172   -0.194094
      7          1           0        6.121879    2.187978   -0.247390
      8          6           0        5.951205    0.195357   -0.044503
      9          1           0        6.861617    0.024680    0.029641
     10          6           0        5.057978   -0.847086   -0.006365
     11          7           0       -0.320774    0.438475   -0.101022
     12          6           0        0.988959    0.061304   -0.121335
     13          6           0        1.370575   -1.301841   -0.055369
     14          1           0        0.717048   -1.962905   -0.013285
     15          6           0        2.682889   -1.648251   -0.052479
     16          6           0        3.077201   -3.094357   -0.021582
     17          1           0        2.293587   -3.637009    0.094537
     18          1           0        3.681437   -3.245502    0.708308
     19          1           0        3.509256   -3.326744   -0.846813
     20          6           0       -1.471703   -0.305884    0.526859
     21          6           0       -1.988167   -1.444528   -0.369307
     22          1           0       -1.305225   -1.708904   -1.006650
     23          1           0       -2.223270   -2.216913    0.168835
     24          6           0       -3.207507   -0.914529   -1.091619
     25          1           0       -3.269517   -1.062543   -2.058441
     26          6           0       -2.539736    0.811891    0.520845
     27          1           0       -2.986231    0.866542    1.391843
     28          6           0       -3.530565    0.465651   -0.561824
     29          6           0       -4.489826   -0.676504   -0.324263
     30          6           0       -4.678636   -1.251280    1.049706
     31          1           0       -3.826775   -1.333123    1.482603
     32          1           0       -5.087568   -2.117627    0.980869
     33          1           0       -5.244487   -0.670779    1.564938
     34          6           0       -5.752545   -0.589558   -1.144865
     35          1           0       -6.124452   -1.467807   -1.251971
     36          1           0       -5.549146   -0.221337   -2.007972
     37          1           0       -6.388164   -0.025782   -0.697588
     38          6           0       -1.774488    2.058834    0.248258
     39          6           0       -2.350053    3.427999    0.295697
     40          1           0       -2.840853    3.542560    1.114112
     41          1           0       -2.940310    3.554556   -0.450314
     42          8           0       -1.160416   -0.641265    1.846121
     43          7           0       -0.544502    1.818476   -0.059020
     44          1           0       -0.573054   -1.213412    1.851690
     45          1           0       -1.640833    4.074541    0.255334
     46          1           0        5.370627   -1.717859    0.082848
     47          1           0       -3.784907    1.162838   -1.201823
 ---------------------------------------------------------------------

 SCF Done:  E(RPBE1PBE) =  -1013.18135763     A.U. after   16 cycles

 The electronic state is 1-A.
 Alpha  occ. eigenvalues --  -19.21519 -14.43143 -14.39877 -14.35250 -10.33221
 Alpha  occ. eigenvalues --  -10.29553 -10.26059 -10.25447 -10.25374 -10.24646
 Alpha  occ. eigenvalues --  -10.23178 -10.22985 -10.22902 -10.22844 -10.22087
 Alpha  occ. eigenvalues --  -10.21850 -10.21525 -10.20811 -10.20655 -10.20215
 Alpha  occ. eigenvalues --  -10.20085 -10.19614 -10.18875 -10.18855  -1.10551
 Alpha  occ. eigenvalues --   -1.03330  -0.94616  -0.92168  -0.87914  -0.84980
 Alpha  occ. eigenvalues --   -0.84470  -0.82257  -0.78254  -0.76663  -0.76608
 Alpha  occ. eigenvalues --   -0.76293  -0.74963  -0.74875  -0.73785  -0.66429
 Alpha  occ. eigenvalues --   -0.65714  -0.63192  -0.61475  -0.60381  -0.60193
 Alpha  occ. eigenvalues --   -0.57144  -0.57048  -0.55343  -0.54159  -0.53124
 Alpha  occ. eigenvalues --   -0.49980  -0.49744  -0.49098  -0.48472  -0.47559
 Alpha  occ. eigenvalues --   -0.47314  -0.47008  -0.46554  -0.45928  -0.45377
 Alpha  occ. eigenvalues --   -0.45291  -0.44411  -0.43746  -0.43247  -0.43109
 Alpha  occ. eigenvalues --   -0.42357  -0.41736  -0.41452  -0.40979  -0.40295
 Alpha  occ. eigenvalues --   -0.39390  -0.38072  -0.37016  -0.36405  -0.36024
 Alpha  occ. eigenvalues --   -0.35210  -0.33577  -0.32800  -0.29984  -0.29654
 Alpha  occ. eigenvalues --   -0.28658  -0.27498  -0.27013  -0.23936  -0.23525
 Alpha  occ. eigenvalues --   -0.20292
 Alpha virt. eigenvalues --   -0.03883   0.00208   0.02287   0.04223   0.07004
 Alpha virt. eigenvalues --    0.07881   0.09062   0.09411   0.09794   0.10504
 Alpha virt. eigenvalues --    0.10718   0.12147   0.13175   0.13438   0.13924

 Mulliken charges:
               1
     1  N   -0.186381
     2  C   -0.000864
     3  C    0.035972
     4  C    0.112023
     5  H   -0.121932
     6  C    0.118766
     7  H   -0.095421
     8  C    0.114797
     9  H   -0.103271
    10  C    0.053987
    11  N   -0.265529
    12  C    0.191322
    13  C   -0.001584
    14  H   -0.163669
    15  C   -0.119114
    16  C    0.314257
    17  H   -0.037029
    18  H   -0.002609
    19  H    0.000875
    20  C   -0.030697
    21  C    0.447866
    22  H   -0.023234
    23  H   -0.047104
    24  C   -0.102587
    25  H   -0.034067
    26  C    0.073186
    27  H   -0.018133
    28  C   -0.000588
    29  C   -0.441650
    30  C    0.333711
    31  H   -0.041292
    32  H   -0.023459
    33  H   -0.022882
    34  C    0.316274
    35  H   -0.026143
    36  H   -0.040580
    37  H   -0.024949
    38  C   -0.185732
    39  C    0.349727
    40  H   -0.018904
    41  H   -0.014757
    42  O   -0.150863
    43  N   -0.030359
    44  H    0.083267
    45  H   -0.013683
    46  H   -0.126151
    47  H   -0.030811
 Sum of Mulliken charges =  -0.00000

 Dipole moment (field-independent basis, Debye):
    X=             -2.7827    Y=             -3.2467    Z=              0.0328  Tot=              4.2762
 Quadrupole moment (field-independent basis, Debye-Ang):
   XX=           -121.5185   YY=           -129.4170   ZZ=           -143.3802
   XY=             -7.9065   XZ=              2.3288   YZ=              0.0740

  Exact polarizability:     341.979      -1.891     210.415      -3.508      -2.312     126.365
 Approx polarizability:     446.296      -1.191     330.817      -8.281      -6.055     197.381

 Summary of Natural Population Analysis:

                                       Natural Population
                Natural  -----------------------------------------------
    Atom  No    Charge         Core      Valence    Rydberg      Total
 -----------------------------------------------------------------------
      N    1   -0.51846      1.99924     5.50349    0.01574     7.51846
      C    2   -0.12602      1.99886     4.11204    0.01512     6.12602
      C    3    0.20822      1.99887     3.76897    0.02394     5.79178
      C    4   -0.16028      1.99901     4.14475    0.01652     6.16028
      H    5    0.18460      0.00000     0.81181    0.00359     0.81540
      C    6   -0.15770      1.99910     4.14450    0.01410     6.15770
      H    7    0.16997      0.00000     0.82698    0.00306     0.83003
      C    8   -0.18119      1.99910     4.16748    0.01461     6.18119
      H    9    0.16914      0.00000     0.82776    0.00309     0.83086
      C   10   -0.14850      1.99906     4.13463    0.01481     6.14850
      N   11   -0.34062      1.99900     5.32209    0.01953     7.34062
      C   12    0.45809      1.99903     3.51182    0.03106     5.54191
      C   13   -0.28678      1.99888     4.27271    0.01518     6.28678
      H   14    0.17171      0.00000     0.82388    0.00441     0.82829
      C   15    0.06847      1.99898     3.91622    0.01633     5.93153
      C   16   -0.55931      1.99914     4.55144    0.00873     6.55931
      H   17    0.19402      0.00000     0.80351    0.00247     0.80598
      H   18    0.20150      0.00000     0.79578    0.00271     0.79850
      H   19    0.20544      0.00000     0.79185    0.00271     0.79456
      C   20    0.50736      1.99897     3.45883    0.03483     5.49264
      C   21   -0.42418      1.99896     4.40842    0.01679     6.42418
      H   22    0.21391      0.00000     0.78275    0.00334     0.78609
      H   23    0.20348      0.00000     0.79228    0.00425     0.79652
      C   24   -0.18537      1.99899     4.16650    0.01988     6.18537
      H   25    0.19924      0.00000     0.79770    0.00307     0.80076
      C   26   -0.30224      1.99884     4.28225    0.02115     6.30224
      H   27    0.22802      0.00000     0.76720    0.00478     0.77198
      C   28   -0.19843      1.99897     4.17782    0.02165     6.19843
      C   29   -0.01612      1.99902     3.99862    0.01847     6.01612
      C   30   -0.55933      1.99912     4.54949    0.01072     6.55933
      H   31    0.19137      0.00000     0.80406    0.00457     0.80863
      H   32    0.19495      0.00000     0.80216    0.00288     0.80505
      H   33    0.19457      0.00000     0.80250    0.00293     0.80543
      C   34   -0.53906      1.99913     4.52807    0.01186     6.53906
      H   35    0.18872      0.00000     0.80822    0.00306     0.81128
      H   36    0.18765      0.00000     0.80990    0.00244     0.81235
      H   37    0.18950      0.00000     0.80749    0.00301     0.81050
      C   38    0.28760      1.99916     3.68173    0.03151     5.71240
      C   39   -0.57355      1.99911     4.56606    0.00838     6.57355
      H   40    0.19800      0.00000     0.79936    0.00265     0.80200
      H   41    0.20027      0.00000     0.79715    0.00258     0.79973
      O   42   -0.70027      1.99964     6.68259    0.01803     8.70027
      N   43   -0.25131      1.99924     5.23112    0.02095     7.25131
      H   44    0.42966      0.00000     0.56348    0.00686     0.57034
      H   45    0.21378      0.00000     0.78283    0.00340     0.78622
      H   46    0.16795      0.00000     0.82885    0.00319     0.83205
      H   47    0.20157      0.00000     0.79521    0.00322     0.79843
 =======================================================================
   * Total *   -0.00000     47.97744   123.50436    0.51820   172.00000

 ******   31 imaginary frequencies (negative Signs) ******

                      1                      2                      3
                      A                      A                      A
 Frequencies --  -2089.3433             -1596.0408             -1456.3643
 Red. masses --      1.0628                 1.0819                 1.0779
 Frc consts  --      2.7335                 1.6238                 1.3470
 IR Inten    --    194.9281               128.3655                60.7408

                      4                      5                      6
                      A                      A                      A
 Frequencies --  -1401.1850             -1398.7141             -1387.2202
 Red. masses --      1.0083                 1.0093                 1.0086
 Frc consts  --      1.1664                 1.1634                 1.1436
 IR Inten    --      0.3001                 0.0236                 0.0263

                      7                      8                      9
                      A                      A                      A
 Frequencies --  -1383.8798             -1363.8937             -1359.0836
 Red. masses --      1.0087                 1.0468                 1.0584
 Frc consts  --      1.1382                 1.1473                 1.1518
 IR Inten    --      0.0060                 5.3245                 7.7399

                     10                     11                     12
                      A                      A                      A
 Frequencies --  -1259.6335             -1181.2359             -1084.0059
 Red. masses --      1.0264                 1.0319                 1.0297
 Frc consts  --      0.9595                 0.8484                 0.7129
 IR Inten    --      0.2837                 0.0242                 2.5976

                     13                     14                     15
                      A                      A                      A
 Frequencies --  -1028.7040             -1028.1636             -1022.3797
 Red. masses --      1.0609                 1.0782                 1.0645
 Frc consts  --      0.6614                 0.6715                 0.6556
 IR Inten    --      6.2679                 8.5086                11.5157

                     16                     17                     18
                      A                      A                      A
 Frequencies --  -1009.1034              -988.0620              -985.6719
 Red. masses --      1.0552                 1.0442                 1.0352
 Frc consts  --      0.6331                 0.6006                 0.5925
 IR Inten    --      5.7554                 1.9408                 2.2449

                     19                     20                     21
                      A                      A                      A
 Frequencies --   -976.8474              -963.0639              -933.9052
 Red. masses --      1.0260                 1.0447                 1.0733
 Frc consts  --      0.5769                 0.5709                 0.5515
 IR Inten    --      0.2562                18.8434                 0.1391

                     22                     23                     24
                      A                      A                      A
 Frequencies --   -896.2256              -819.1083              -801.0959
 Red. masses --      1.1213                 1.0742                 1.1074
 Frc consts  --      0.5306                 0.4246                 0.4187
 IR Inten    --      2.8614                 5.5642                 4.2725

                     25                     26                     27
                      A                      A                      A
 Frequencies --   -780.4872              -747.3297              -615.8764
 Red. masses --      1.0773                 1.0869                 1.0908
 Frc consts  --      0.3866                 0.3576                 0.2438
 IR Inten    --     17.5906                 7.1424                 4.9968

                     28                     29                     30
                      A                      A                      A
 Frequencies --   -476.9873              -384.6468              -286.6951
 Red. masses --      1.3540                 1.3576                 1.5975
 Frc consts  --      0.1815                 0.1183                 0.0774
 IR Inten    --      2.0044                 2.9820                 6.3626

                     31                     32                     33
                      A                      A                      A
 Frequencies --   -252.1070               100.0272               113.5597
 Red. masses --      1.3260                 3.9750                 2.8738
 Frc consts  --      0.0497                 0.0234                 0.0218
 IR Inten    --      4.7088                 1.1642                 0.1078

                     34                     35                     36
                      A                      A                      A
 Frequencies --    138.1166               158.1590               214.1857
 Red. masses --      3.4106                 8.1639                 4.2975
 Frc consts  --      0.0383                 0.1203                 0.1162
 IR Inten    --      4.8600                 1.4890                 1.7757

                     37                     38                     39
                      A                      A                      A
 Frequencies --    223.4016               250.3299               264.8793
 Red. masses --      5.5663                 4.7728                 9.6207
 Frc consts  --      0.1637                 0.1762                 0.3977
 IR Inten    --      0.1788                 1.2075                 0.1375

                     40                     41                     42
                      A                      A                      A
 Frequencies --    297.6724               331.7235               359.8258
 Red. masses --      7.1431                 6.6003                 4.9824
 Frc consts  --      0.3729                 0.4279                 0.3801
 IR Inten    --      0.1861                 2.5672                 3.2953

                     43                     44                     45
                      A                      A                      A
 Frequencies --    372.5614               382.0965               399.3884
 Red. masses --      3.6418                 6.8485                 3.1938
 Frc consts  --      0.2978                 0.5891                 0.3002
 IR Inten    --      1.0225                 2.5317                 1.1449

                     46                     47                     48
                      A                      A                      A
 Frequencies --    406.8548               424.4879               426.0983
 Red. masses --      3.4113                 1.1587                 1.1688
 Frc consts  --      0.3327                 0.1230                 0.1250
 IR Inten    --      0.8017                13.0539                14.0607

                     49                     50                     51
                      A                      A                      A
 Frequencies --    434.8889               439.4827               451.7364
 Red. masses --      1.7421                 1.5776                 4.9998
 Frc consts  --      0.1941                 0.1795                 0.6011
 IR Inten    --      5.1844                 4.2664                 1.0594

                     52                     53                     54
                      A                      A                      A
 Frequencies --    479.6031               492.6032               520.3263
 Red. masses --      1.3734                 3.8812                 3.0413
 Frc consts  --      0.1861                 0.5549                 0.4851
 IR Inten    --      9.7635                 0.3049                 1.2954

                     55                     56                     57
                      A                      A                      A
 Frequencies --    542.0618               554.9478               564.8303
 Red. masses --      4.6191                 6.4153                 8.9382
 Frc consts  --      0.7997                 1.1641                 1.6801
 IR Inten    --     11.6239                 6.5444                 2.2509

                     58                     59                     60
                      A                      A                      A
 Frequencies --    588.3052               622.5975               625.1467
 Red. masses --      4.9634                 5.3883                 3.4593
 Frc consts  --      1.0121                 1.2306                 0.7965
 IR Inten    --      1.7851                 4.6471                 8.0340

                     61                     62                     63
                      A                      A                      A
 Frequencies --    646.3345               662.0085               681.6184
 Red. masses --      7.8599                 5.3693                 5.6256
 Frc consts  --      1.9346                 1.3864                 1.5399
 IR Inten    --      6.0389                 1.9376                17.5826

                     64                     65                     66
                      A                      A                      A
 Frequencies --    686.0058               705.0060               731.6685
 Red. masses --      5.3994                 5.2846                 5.3794
 Frc consts  --      1.4971                 1.5476                 1.6967
 IR Inten    --     13.6929                 1.3047                 1.1520

                     67                     68                     69
                      A                      A                      A
 Frequencies --    737.3152               752.5566               766.6303
 Red. masses --      3.5502                 4.4456                 8.3319
 Frc consts  --      1.1371                 1.4834                 2.8851
 IR Inten    --      2.3650                 1.9605                 7.7289

                     70                     71                     72
                      A                      A                      A
 Frequencies --    783.3466               802.0910               819.9687
 Red. masses --      5.0954                 4.1362                 4.2971
 Frc consts  --      1.8422                 1.5678                 1.7022
 IR Inten    --     14.7915                 7.8749                 3.0364

                     73                     74                     75
                      A                      A                      A
 Frequencies --    823.0610               846.2479               864.2240
 Red. masses --      3.1555                 3.1365                 3.4434
 Frc consts  --      1.2595                 1.3234                 1.5153
 IR Inten    --      4.2627                 2.5662                 5.7599

                     76                     77                     78
                      A                      A                      A
 Frequencies --    873.2968               893.2506               940.2146
 Red. masses --      6.2964                 5.2760                 5.7006
 Frc consts  --      2.8292                 2.4803                 2.9691
 IR Inten    --      6.9403                 5.8873                 2.4370

                     79                     80                     81
                      A                      A                      A
 Frequencies --    947.8266               973.1085               978.0314
 Red. masses --      1.9009                 1.1577                 1.1577
 Frc consts  --      1.0062                 0.6459                 0.6525
 IR Inten    --     13.9560                 8.3408                11.8429

                     82                     83                     84
                      A                      A                      A
 Frequencies --    983.7936               984.9619               987.6566
 Red. masses --      1.1007                 1.2152                 1.2259
 Frc consts  --      0.6276                 0.6946                 0.7045
 IR Inten    --     11.5280                12.8060                15.6477

                     85                     86                     87
                      A                      A                      A
 Frequencies --    993.9606              1008.0906              1018.5712
 Red. masses --      1.1706                 3.2541                 1.2103
 Frc consts  --      0.6814                 1.9484                 0.7398
 IR Inten    --      2.5719                74.2570                 5.4543

                     88                     89                     90
                      A                      A                      A
 Frequencies --   1022.1531              1056.5228              1068.4560
 Red. masses --      1.3937                 4.0019                 8.0651
 Frc consts  --      0.8579                 2.6319                 5.4247
 IR Inten    --     21.7159                 7.9185                46.8827

                     91                     92                     93
                      A                      A                      A
 Frequencies --   1091.2681              1115.7317              1117.5397
 Red. masses --      4.8008                 3.4335                 2.7641
 Frc consts  --      3.3684                 2.5183                 2.0339
 IR Inten    --     28.7463                 7.1794                 4.6884

                     94                     95                     96
                      A                      A                      A
 Frequencies --   1165.7464              1189.3540              1230.7340
 Red. masses --      7.1204                 5.5454                 8.2814
 Frc consts  --      5.7011                 4.6218                 7.3906
 IR Inten    --     62.3693                13.5360                27.0042

                     97                     98                     99
                      A                      A                      A
 Frequencies --   1244.5117              1284.8239              1305.4714
 Red. masses --      8.5465                 8.5102                 8.5997
 Frc consts  --      7.7990                 8.2771                 8.6351
 IR Inten    --     32.8366                30.0660                 9.5715

                    100                    101                    102
                      A                      A                      A
 Frequencies --   1353.6065              1356.9938              1361.9108
 Red. masses --      6.7835                 8.5564                 9.8782
 Frc consts  --      7.3230                 9.2832                10.7951
 IR Inten    --      5.3273                38.6602                16.2484

                    103                    104                    105
                      A                      A                      A
 Frequencies --   1396.9607              1447.7821              1459.1336
 Red. masses --      9.6322                 9.7515                 7.8613
 Frc consts  --     11.0751                12.0428                 9.8613
 IR Inten    --    122.8076                49.7464                 0.2765

                    106                    107                    108
                      A                      A                      A
 Frequencies --   1502.0265              1551.4632              1575.2522
 Red. masses --      9.6602                11.2731                11.0189
 Frc consts  --     12.8407                15.9874                16.1098
 IR Inten    --     17.9137               348.4688               448.0979

                    109                    110                    111
                      A                      A                      A
 Frequencies --   1659.2973              1679.6702              1709.8248
 Red. masses --     10.2628                10.8667                10.9376
 Frc consts  --     16.6481                18.0632                18.8398
 IR Inten    --    203.3311                32.1000                 0.6308

                    112                    113                    114
                      A                      A                      A
 Frequencies --   1716.2553              4360.9025              4380.5122
 Red. masses --     10.5202                 1.0870                 1.0888
 Frc consts  --     18.2574                12.1794                12.3101
 IR Inten    --    336.1247                 1.5536                 0.9994

                    115                    116                    117
                      A                      A                      A
 Frequencies --   4385.8997              4417.8037              4466.1191
 Red. masses --      1.0904                 1.0603                 1.0322
 Frc consts  --     12.3586                12.1927                12.1306
 IR Inten    --      3.9492                 6.2402                13.1595

                    118                    119                    120
                      A                      A                      A
 Frequencies --   4466.9127              4467.4387              4471.0641
 Red. masses --      1.0329                 1.0326                 1.0326
 Frc consts  --     12.1425                12.1419                12.1615
 IR Inten    --      5.5357                13.2292                 4.0244

                    121                    122                    123
                      A                      A                      A
 Frequencies --   4540.2666              4666.8414              4668.4101
 Red. masses --      1.1091                 1.1069                 1.1062
 Frc consts  --     13.4711                14.2037                14.2049
 IR Inten    --      1.6715                 2.4704                 0.4529

                    124                    125                    126
                      A                      A                      A
 Frequencies --   4672.7512              4674.8757              4676.6535
 Red. masses --      1.1069                 1.1067                 1.1070
 Frc consts  --     14.2400                14.2502                14.2648
 IR Inten    --      3.4372                 5.0275                 1.5754

                    127                    128                    129
                      A                      A                      A
 Frequencies --   4680.4250              4681.7150              4682.9610
 Red. masses --      1.1066                 1.1063                 1.1063
 Frc consts  --     14.2830                14.2862                14.2942
 IR Inten    --      0.0426                 0.2992                 1.1175

                    130                    131                    132
                      A                      A                      A
 Frequencies --   5014.9231              5024.4508              5037.2543
 Red. masses --      1.0890                 1.0873                 1.0885
 Frc consts  --     16.1360                16.1725                16.2737
 IR Inten    --      1.0253                 1.0469                 0.6382

                    133                    134                    135
                      A                      A                      A
 Frequencies --   5039.7078              5050.0382              6309.0231
 Red. masses --      1.0900                 1.0918                 1.0670
 Frc consts  --     16.3115                16.4053                25.0241
 IR Inten    --      0.0621                 0.7390                70.4941

 - Thermochemistry -
 -------------------
 Temperature   298.150 Kelvin.  Pressure   1.00000 Atm.
 Atom     1 has atomic number  7 and mass  14.00307

 Molecular mass:   321.18411 amu.
 Principal axes and moments of inertia in atomic units:
                           1         2         3
     Eigenvalues --  3035.14515********************
           X            0.99999  -0.00372   0.00188
           Y            0.00372   0.99999   0.00048
           Z           -0.00188  -0.00047   1.00000
 This molecule is an asymmetric top.
 Rotational symmetry number  1.
 Warning -- assumption of classical behavior for rotation
           may cause significant error
 Rotational temperatures (Kelvin)      0.02854     0.00626     0.00547
 Rotational constants (GHZ):           0.59461     0.13045     0.11387
   31 imaginary frequencies ignored.
 Zero-point vibrational energy    1056124.2 (Joules/Mol)
                                  252.41975 (Kcal/Mol)
 Warning -- explicit consideration of  27 degrees of freedom as
           vibrations may cause significant error
 Vibrational temperatures:    143.92   163.39   198.72   227.56   308.17
          (Kelvin)            321.43   360.17   381.10   428.28   477.28
                              517.71   536.03   549.75   574.63   585.37
                              610.74   613.06   625.71   632.32   649.95
                              690.04   708.75   748.63   779.91   798.45
                              812.66   846.44   895.78   899.45   929.93
                              952.48   980.70   987.01  1014.35  1052.71
                             1060.83  1082.76  1103.01  1127.06  1154.03
                             1179.75  1184.20  1217.56  1243.43  1256.48
                             1285.19  1352.76  1363.71  1400.09  1407.17
                             1415.46  1417.14  1421.02  1430.09  1450.42
                             1465.50  1470.65  1520.10  1537.27  1570.09
                             1605.29  1607.89  1677.25  1711.22  1770.75
                             1790.57  1848.58  1878.28  1947.54  1952.41
                             1959.49  2009.91  2083.04  2099.37  2161.08
                             2232.21  2266.44  2387.36  2416.67  2460.06
                             2469.31  6274.37  6302.58  6310.33  6356.23
                             6425.75  6426.89  6427.65  6432.86  6532.43
                             6714.54  6716.80  6723.05  6726.10  6728.66
                             6734.09  6735.94  6737.74  7215.36  7229.06
                             7247.49  7251.02  7265.88  9077.28

 Zero-point correction=                           0.402256 (Hartree/Particle)
 Thermal correction to Energy=                    0.417620
 Thermal correction to Enthalpy=                  0.418564
 Thermal correction to Gibbs Free Energy=         0.361420
 Sum of electronic and zero-point Energies=          -1012.779101
 Sum of electronic and thermal Energies=             -1012.763737
 Sum of electronic and thermal Enthalpies=           -1012.762793
 Sum of electronic and thermal Free Energies=        -1012.819937

                     E (Thermal)             CV                S
                      KCal/Mol        Cal/Mol-Kelvin    Cal/Mol-Kelvin
 Total                  262.061             68.703            120.269
 Electronic               0.000              0.000              0.000
 Translational            0.889              2.981             43.196
 Rotational               0.889              2.981             34.852
 Vibrational            260.283             62.742             42.221
 Vibration     1          0.604              1.949              3.454
 Vibration     2          0.607              1.938              3.207
 Vibration     3          0.614              1.915              2.830
 Vibration     4          0.621              1.893              2.572
 Vibration     5          0.644              1.819              2.008
 Vibration     6          0.649              1.805              1.931
 Vibration     7          0.663              1.762              1.728
 Vibration     8          0.671              1.737              1.629
 Vibration     9          0.691              1.678              1.430
 Vibration    10          0.714              1.612              1.252
 Vibration    11          0.734              1.555              1.123
 Vibration    12          0.744              1.528              1.069
 Vibration    13          0.752              1.508              1.031
 Vibration    14          0.765              1.471              0.965
 Vibration    15          0.772              1.455              0.938
 Vibration    16          0.786              1.417              0.877
 Vibration    17          0.788              1.413              0.871
 Vibration    18          0.795              1.394              0.843
 Vibration    19          0.800              1.384              0.828
 Vibration    20          0.810              1.357              0.791
 Vibration    21          0.836              1.295              0.711
 Vibration    22          0.848              1.266              0.677
 Vibration    23          0.875              1.205              0.609
 Vibration    24          0.897              1.157              0.561
 Vibration    25          0.910              1.129              0.534
 Vibration    26          0.921              1.107              0.514
 Vibration    27          0.946              1.057              0.470

 Normal termination of Gaussian 16 at Sat Mar  4 13:37:56 2023.
