 Gaussian 16, Revision C.01,
 Gaussian 16:  ES64L-G16RevC.01  3-Jul-2019

 ----------------------------------------------------------------------
 #p pop=(regular,nbo,savenbos) freq=noraman def2svp empiricaldispersion
 =gd3bj output=wfx pbe1pbe
 ----------------------------------------------------------------------

 ----------------------------------------
 BULQAA_Complex_4_Ligand_1_NN_Cu_oriented
 ----------------------------------------
 Symbolic Z-matrix:
 Charge =  0 Multiplicity = 1

                         Standard orientation:
 ---------------------------------------------------------------------
 Center     Atomic      Atomic             Coordinates (Angstroms)
 Number     Number       Type             X           Y           Z
 ---------------------------------------------------------------------
      1          7           0        1.633302    0.041423   -0.698941
      2          1           0        1.943180    0.854013   -0.964641
      3          7           0       -0.877130   -0.874645   -0.550687
      4          1           0       -1.521004   -1.521417   -0.663218
      5          6           0        0.819775    0.175672    0.544916
      6          6           0        0.011830   -1.108230    0.641012
      7          1           0        0.571075   -1.905960    0.535840
      8          1           0       -0.495140   -1.164576    1.476971
      9          6           0       -1.432840    0.486372   -0.296572
     10          1           0       -2.199595    0.445635    0.311692
     11          1           0       -1.710807    0.914406   -1.133235
     12          6           0       -0.256162    1.244022    0.348160
     13          1           0        0.064527    1.958377   -0.240996
     14          1           0       -0.521281    1.635338    1.207019
     15          1           0        2.344984   -0.508127   -0.554954
     16          1           0        1.375239    0.337842    1.347828
 ---------------------------------------------------------------------

 SCF Done:  E(RPBE1PBE) =  -267.305643868     A.U. after   12 cycles

 The electronic state is 1-A.
 Alpha  occ. eigenvalues --  -14.33881 -14.32602 -10.23681 -10.21543 -10.21520
 Alpha  occ. eigenvalues --  -10.19708  -0.93291  -0.88175  -0.76986  -0.73868
 Alpha  occ. eigenvalues --   -0.62859  -0.59356  -0.53992  -0.51062  -0.50625
 Alpha  occ. eigenvalues --   -0.45354  -0.41678  -0.39062  -0.37853  -0.36554
 Alpha  occ. eigenvalues --   -0.35331  -0.34678  -0.23845  -0.20309
 Alpha virt. eigenvalues --    0.07851   0.10852   0.12354   0.12656   0.14693
 Alpha virt. eigenvalues --    0.15110   0.16604   0.17263   0.19610   0.20327
 Alpha virt. eigenvalues --    0.21192   0.23285   0.24185   0.26515   0.28597

 Mulliken charges:
               1
     1  N   -0.113668
     2  H    0.048242
     3  N   -0.316405
     4  H    0.060008
     5  C   -0.164001
     6  C    0.264637
     7  H   -0.031670
     8  H   -0.033199
     9  C    0.242174
    10  H   -0.038542
    11  H   -0.026175
    12  C    0.136465
    13  H   -0.030819
    14  H   -0.019205
    15  H    0.049912
    16  H   -0.027755
 Sum of Mulliken charges =  -0.00000

 Dipole moment (field-independent basis, Debye):
    X=              0.1738    Y=              0.4962    Z=              1.7039  Tot=              1.7831
 Quadrupole moment (field-independent basis, Debye-Ang):
   XX=            -32.1515   YY=            -34.9224   ZZ=            -39.6558
   XY=              1.0328   XZ=              0.4048   YZ=             -1.8333

  Exact polarizability:      50.744      -1.444      48.984       0.415      -1.082      44.080
 Approx polarizability:      62.685      -2.083      63.917       0.705      -0.822      60.582

 Summary of Natural Population Analysis:

                                       Natural Population
                Natural  -----------------------------------------------
    Atom  No    Charge         Core      Valence    Rydberg      Total
 -----------------------------------------------------------------------
      N    1   -0.81553      1.99943     5.79327    0.02283     7.81553
      H    2    0.32396      0.00000     0.67087    0.00517     0.67604
      N    3   -0.68271      1.99945     5.66677    0.01649     7.68271
      H    4    0.33794      0.00000     0.65677    0.00529     0.66206
      C    5    0.00242      1.99907     3.98248    0.01603     5.99758
      C    6   -0.16700      1.99907     4.15233    0.01559     6.16700
      H    7    0.18278      0.00000     0.81435    0.00287     0.81722
      H    8    0.15506      0.00000     0.84036    0.00457     0.84494
      C    9   -0.15155      1.99914     4.13876    0.01365     6.15155
      H   10    0.15456      0.00000     0.84130    0.00413     0.84544
      H   11    0.17953      0.00000     0.81759    0.00288     0.82047
      C   12   -0.39412      1.99911     4.38262    0.01239     6.39412
      H   13    0.19376      0.00000     0.80307    0.00317     0.80624
      H   14    0.19191      0.00000     0.80484    0.00325     0.80809
      H   15    0.32471      0.00000     0.67011    0.00518     0.67529
      H   16    0.16427      0.00000     0.83219    0.00354     0.83573
 =======================================================================
   * Total *   -0.00000     11.99527    35.86769    0.13704    48.00000

 ******   11 imaginary frequencies (negative Signs) ******

                      1                      2                      3
                      A                      A                      A
 Frequencies --  -1445.4342             -1247.1762             -1158.6262
 Red. masses --      1.0503                 1.1631                 1.1252
 Frc consts  --      1.2929                 1.0659                 0.8900
 IR Inten    --     44.6000               142.5631               121.0846

                      4                      5                      6
                      A                      A                      A
 Frequencies --   -975.2951              -947.6184              -903.8779
 Red. masses --      1.0609                 1.0589                 1.0820
 Frc consts  --      0.5945                 0.5602                 0.5208
 IR Inten    --      0.4998                 0.9651                 0.0696

                      7                      8                      9
                      A                      A                      A
 Frequencies --   -793.6868              -391.1417              -372.8192
 Red. masses --      1.1557                 1.4277                 1.3279
 Frc consts  --      0.4289                 0.1287                 0.1087
 IR Inten    --      0.8666                 2.1096                 5.7070

                     10                     11                     12
                      A                      A                      A
 Frequencies --   -330.7966              -155.1350               277.2137
 Red. masses --      1.3354                 1.2845                 1.1834
 Frc consts  --      0.0861                 0.0182                 0.0536
 IR Inten    --      5.3004                 2.7728                 6.6839

                     13                     14                     15
                      A                      A                      A
 Frequencies --    427.2094               483.8099               621.1980
 Red. masses --      1.1107                 1.2655                 1.4122
 Frc consts  --      0.1194                 0.1745                 0.3211
 IR Inten    --      3.1959                 1.1230                 3.2938

                     16                     17                     18
                      A                      A                      A
 Frequencies --    666.3309               754.3174               786.9232
 Red. masses --      2.1954                 1.2931                 1.8730
 Frc consts  --      0.5743                 0.4335                 0.6834
 IR Inten    --      5.2971                 7.7560                 0.9558

                     19                     20                     21
                      A                      A                      A
 Frequencies --    830.2850               854.9515               865.1337
 Red. masses --      3.7222                 2.8244                 3.2734
 Frc consts  --      1.5118                 1.2164                 1.4435
 IR Inten    --      0.4950                 4.5847                 8.8124

                     22                     23                     24
                      A                      A                      A
 Frequencies --    891.0393               952.5913              1015.1446
 Red. masses --      2.7126                 3.6654                 2.6278
 Frc consts  --      1.2689                 1.9597                 1.5955
 IR Inten    --      2.3262                 7.3369                 2.2287

                     25                     26                     27
                      A                      A                      A
 Frequencies --   1037.6125              1060.8435              1086.3513
 Red. masses --      1.8077                 1.3005                 1.5551
 Frc consts  --      1.1467                 0.8623                 1.0813
 IR Inten    --     13.1457                 6.3516                21.1077

                     28                     29                     30
                      A                      A                      A
 Frequencies --   1102.2031              1130.2046              1142.0122
 Red. masses --      3.1326                 1.4173                 1.6353
 Frc consts  --      2.2422                 1.0667                 1.2566
 IR Inten    --      6.2430                 3.3129                21.9463

                     31                     32                     33
                      A                      A                      A
 Frequencies --   1198.4164              1223.2232              4238.2905
 Red. masses --      2.7265                 4.7838                 1.0875
 Frc consts  --      2.3071                 4.2173                11.5097
 IR Inten    --      7.3327                 2.5659                31.7149

                     34                     35                     36
                      A                      A                      A
 Frequencies --   4295.1236              4301.6717              4306.1137
 Red. masses --      1.0580                 1.0572                 1.0603
 Frc consts  --     11.4996                11.5260                11.5833
 IR Inten    --     32.0936                36.6505                18.8641

                     37                     38                     39
                      A                      A                      A
 Frequencies --   4414.0214              4428.0116              4429.6597
 Red. masses --      1.1121                 1.1097                 1.1123
 Frc consts  --     12.7665                12.8199                12.8595
 IR Inten    --      7.2698                 9.2836                18.2392

                     40                     41                     42
                      A                      A                      A
 Frequencies --   4875.2100              4957.9705              5092.9588
 Red. masses --      1.0764                 1.0501                 1.0956
 Frc consts  --     15.0728                15.2090                16.7438
 IR Inten    --      4.8744                 2.6251                 6.8655

 - Thermochemistry -
 -------------------
 Temperature   298.150 Kelvin.  Pressure   1.00000 Atm.
 Atom     1 has atomic number  7 and mass  14.00307

 Molecular mass:    86.08440 amu.
 Principal axes and moments of inertia in atomic units:
                           1         2         3
     Eigenvalues --   336.78541 481.54828 597.23847
           X            0.99991  -0.01333  -0.00151
           Y            0.01327   0.99924  -0.03673
           Z            0.00199   0.03671   0.99932
 This molecule is an asymmetric top.
 Rotational symmetry number  1.
 Rotational temperatures (Kelvin)      0.25718     0.17987     0.14502
 Rotational constants (GHZ):           5.35873     3.74779     3.02181
   11 imaginary frequencies ignored.
 Zero-point vibrational energy     381286.0 (Joules/Mol)
                                   91.12955 (Kcal/Mol)
 Warning -- explicit consideration of   3 degrees of freedom as
           vibrations may cause significant error
 Vibrational temperatures:    398.85   614.66   696.09   893.77   958.70
          (Kelvin)           1085.29  1132.21  1194.59  1230.08  1244.73
                             1282.01  1370.57  1460.57  1492.89  1526.32
                             1563.02  1585.82  1626.11  1643.10  1724.25
                             1759.95  6097.95  6179.72  6189.15  6195.54
                             6350.79  6370.92  6373.29  7014.34  7133.41
                             7327.63

 Zero-point correction=                           0.145224 (Hartree/Particle)
 Thermal correction to Energy=                    0.149995
 Thermal correction to Enthalpy=                  0.150939
 Thermal correction to Gibbs Free Energy=         0.117196
 Sum of electronic and zero-point Energies=           -267.160420
 Sum of electronic and thermal Energies=              -267.155649
 Sum of electronic and thermal Enthalpies=            -267.154705
 Sum of electronic and thermal Free Energies=         -267.188448

                     E (Thermal)             CV                S
                      KCal/Mol        Cal/Mol-Kelvin    Cal/Mol-Kelvin
 Total                   94.123             18.799             71.018
 Electronic               0.000              0.000              0.000
 Translational            0.889              2.981             39.271
 Rotational               0.889              2.981             26.074
 Vibrational             92.346             12.838              5.673
 Vibration     1          0.678              1.716              1.551
 Vibration     2          0.789              1.411              0.868
 Vibration     3          0.840              1.286              0.700

 Normal termination of Gaussian 16 at Sat Mar  4 11:23:57 2023.
