 Gaussian 16, Revision C.01,
 Gaussian 16:  ES64L-G16RevC.01  3-Jul-2019

 ----------------------------------------------------------------------
 #p pop=(regular,nbo,savenbos) freq=noraman def2svp empiricaldispersion
 =gd3bj output=wfx pbe1pbe
 ----------------------------------------------------------------------

 ----------------------------------------
 BUYTUM_Complex_0_Ligand_0_NN_Cu_oriented
 ----------------------------------------
 Symbolic Z-matrix:
 Charge =  0 Multiplicity = 1

                         Standard orientation:
 ---------------------------------------------------------------------
 Center     Atomic      Atomic             Coordinates (Angstroms)
 Number     Number       Type             X           Y           Z
 ---------------------------------------------------------------------
      1          6           0        0.889115   -0.331899    1.444960
      2          1           0        0.759133   -0.378516    2.415150
      3          6           0       -0.504768   -0.390576    0.778200
      4          1           0       -0.898397   -1.250411    1.031939
      5          6           0       -1.557615    0.652888    1.011868
      6          1           0       -1.196925    1.545271    0.896160
      7          1           0       -1.932827    0.576505    1.903197
      8          6           0       -2.642803    0.327826   -0.090779
      9          6           0       -1.834455   -0.487194   -1.113754
     10          1           0       -2.123606   -1.413910   -1.108078
     11          1           0       -1.962780   -0.130108   -2.005711
     12          7           0       -0.399324   -0.393268   -0.720583
     13          6           0        0.432858   -1.502721   -1.181662
     14          1           0        0.550641   -1.440346   -2.142255
     15          1           0       -0.012427   -2.343186   -0.987866
     16          6           0        1.819871   -1.482611   -0.491007
     17          1           0        2.323658   -2.269918   -0.788215
     18          6           0        2.634312   -0.246150   -0.809575
     19          1           0        3.524023   -0.353556   -0.439038
     20          1           0        2.722768   -0.169344   -1.772220
     21          7           0        2.044883    1.012241   -0.281892
     22          6           0        1.704054    0.896816    1.147071
     23          1           0        1.204749    1.683221    1.418824
     24          1           0        2.521536    0.869037    1.667648
     25          6           0        1.647315   -1.568432    1.018317
     26          1           0        1.151161   -2.367184    1.256841
     27          1           0        2.512548   -1.600818    1.455208
     28          6           0        3.028223    2.095995   -0.498492
     29          1           0        3.819790    1.916298    0.015302
     30          1           0        2.649109    2.933155   -0.219580
     31          1           0        3.255303    2.141266   -1.429250
     32          6           0       -3.238570    1.595689   -0.687723
     33          1           0       -3.891012    1.360013   -1.351147
     34          1           0       -3.658385    2.109256    0.005490
     35          6           0       -3.762389   -0.521343    0.526233
     36          1           0       -4.421495   -0.718288   -0.142784
     37          1           0       -4.172612   -0.036538    1.246616
     38          1           0       -3.392274   -1.340239    0.863386
     39          1           0       -2.541483    2.115790   -1.094234
 ---------------------------------------------------------------------

 SCF Done:  E(RPBE1PBE) =  -617.835385152     A.U. after   13 cycles

 The electronic state is 1-A.
 Alpha  occ. eigenvalues --  -14.35334 -14.35252 -10.22848 -10.22468 -10.21201
 Alpha  occ. eigenvalues --  -10.21103 -10.20964 -10.20938 -10.20863 -10.20574
 Alpha  occ. eigenvalues --  -10.19514 -10.19038 -10.18442 -10.17340 -10.16977
 Alpha  occ. eigenvalues --   -0.94405  -0.91847  -0.84264  -0.81914  -0.80002
 Alpha  occ. eigenvalues --   -0.74890  -0.72925  -0.72570  -0.71693  -0.68132
 Alpha  occ. eigenvalues --   -0.64539  -0.62163  -0.60613  -0.55927  -0.55328
 Alpha  occ. eigenvalues --   -0.51305  -0.49899  -0.49153  -0.48156  -0.47972
 Alpha  occ. eigenvalues --   -0.46803  -0.46498  -0.45673  -0.44460  -0.44066
 Alpha  occ. eigenvalues --   -0.43156  -0.41880  -0.41364  -0.40581  -0.39925
 Alpha  occ. eigenvalues --   -0.39722  -0.38836  -0.37403  -0.35494  -0.35126
 Alpha  occ. eigenvalues --   -0.32866  -0.32644  -0.32130  -0.31355  -0.30166
 Alpha  occ. eigenvalues --   -0.30163  -0.21992  -0.18309
 Alpha virt. eigenvalues --    0.07195   0.08807   0.10042   0.10675   0.12069
 Alpha virt. eigenvalues --    0.12403   0.13272   0.13897   0.14246   0.14863
 Alpha virt. eigenvalues --    0.15405   0.16172   0.16587   0.16994   0.17445

 Mulliken charges:
               1
     1  C   -0.093872
     2  H   -0.042928
     3  C    0.021099
     4  H   -0.069318
     5  C    0.450233
     6  H   -0.056645
     7  H   -0.060431
     8  C   -0.755421
     9  C    0.525171
    10  H   -0.081695
    11  H   -0.060440
    12  N   -0.491243
    13  C    0.372158
    14  H   -0.042962
    15  H   -0.070556
    16  C   -0.187813
    17  H   -0.034086
    18  C    0.339393
    19  H   -0.070269
    20  H   -0.043207
    21  N   -0.497857
    22  C    0.375541
    23  H   -0.044623
    24  H   -0.074200
    25  C    0.206812
    26  H   -0.048678
    27  H   -0.047082
    28  C    0.320500
    29  H   -0.063020
    30  H   -0.031743
    31  H   -0.031692
    32  C    0.287109
    33  H   -0.033287
    34  H   -0.032886
    35  C    0.289178
    36  H   -0.030152
    37  H   -0.031651
    38  H   -0.039663
    39  H   -0.019775
 Sum of Mulliken charges =  -0.00000

 Dipole moment (field-independent basis, Debye):
    X=              0.3488    Y=             -0.7831    Z=              0.7024  Tot=              1.1082
 Quadrupole moment (field-independent basis, Debye-Ang):
   XX=            -88.1502   YY=            -91.0062   ZZ=            -90.9334
   XY=              0.0080   XZ=             -0.0836   YZ=              1.5694

  Exact polarizability:     147.373      -0.186     122.762      -0.118       1.194     116.872
 Approx polarizability:     176.483      -0.599     169.613      -0.005       1.357     169.621

 Summary of Natural Population Analysis:

                                       Natural Population
                Natural  -----------------------------------------------
    Atom  No    Charge         Core      Valence    Rydberg      Total
 -----------------------------------------------------------------------
      C    1   -0.20830      1.99901     4.19139    0.01791     6.20830
      H    2    0.20242      0.00000     0.79360    0.00398     0.79758
      C    3    0.00711      1.99898     3.97080    0.02311     5.99289
      H    4    0.15318      0.00000     0.83804    0.00878     0.84682
      C    5   -0.37048      1.99905     4.35243    0.01901     6.37048
      H    6    0.19425      0.00000     0.80189    0.00386     0.80575
      H    7    0.18932      0.00000     0.80730    0.00337     0.81068
      C    8   -0.01973      1.99916     4.00518    0.01539     6.01973
      C    9   -0.15352      1.99898     4.13423    0.02031     6.15352
      H   10    0.15527      0.00000     0.83925    0.00548     0.84473
      H   11    0.18183      0.00000     0.81511    0.00306     0.81817
      N   12   -0.55886      1.99939     5.54478    0.01468     7.55886
      C   13   -0.14390      1.99903     4.12506    0.01980     6.14390
      H   14    0.18297      0.00000     0.81374    0.00328     0.81703
      H   15    0.15315      0.00000     0.84059    0.00626     0.84685
      C   16   -0.20426      1.99906     4.18885    0.01635     6.20426
      H   17    0.19890      0.00000     0.79739    0.00371     0.80110
      C   18   -0.15659      1.99900     4.13802    0.01957     6.15659
      H   19    0.15277      0.00000     0.84061    0.00662     0.84723
      H   20    0.18328      0.00000     0.81326    0.00346     0.81672
      N   21   -0.54189      1.99944     5.52874    0.01371     7.54189
      C   22   -0.15465      1.99901     4.13558    0.02006     6.15465
      H   23    0.18437      0.00000     0.81230    0.00333     0.81563
      H   24    0.15415      0.00000     0.83937    0.00648     0.84585
      C   25   -0.37035      1.99907     4.35396    0.01733     6.37035
      H   26    0.18993      0.00000     0.80599    0.00408     0.81007
      H   27    0.19026      0.00000     0.80552    0.00422     0.80974
      C   28   -0.31204      1.99912     4.30173    0.01119     6.31204
      H   29    0.14414      0.00000     0.85001    0.00584     0.85586
      H   30    0.17701      0.00000     0.82071    0.00228     0.82299
      H   31    0.17678      0.00000     0.82092    0.00230     0.82322
      C   32   -0.54682      1.99913     4.53519    0.01251     6.54682
      H   33    0.18437      0.00000     0.81275    0.00289     0.81563
      H   34    0.18594      0.00000     0.81128    0.00278     0.81406
      C   35   -0.54865      1.99913     4.53679    0.01273     6.54865
      H   36    0.18584      0.00000     0.81123    0.00292     0.81416
      H   37    0.18640      0.00000     0.81071    0.00289     0.81360
      H   38    0.18458      0.00000     0.81271    0.00271     0.81542
      H   39    0.19180      0.00000     0.80512    0.00307     0.80820
 =======================================================================
   * Total *   -0.00000     29.98655    85.66215    0.35130   116.00000

 ******   27 imaginary frequencies (negative Signs) ******

                      1                      2                      3
                      A                      A                      A
 Frequencies --  -1392.8863             -1381.2080             -1375.2077
 Red. masses --      1.0095                 1.0098                 1.0107
 Frc consts  --      1.1540                 1.1351                 1.1262
 IR Inten    --      0.0869                 0.0157                 0.0321

                      4                      5                      6
                      A                      A                      A
 Frequencies --  -1076.2558             -1071.2456             -1049.8352
 Red. masses --      1.0375                 1.0428                 1.0374
 Frc consts  --      0.7080                 0.7050                 0.6737
 IR Inten    --      2.6686                 2.0913                 0.3454

                      7                      8                      9
                      A                      A                      A
 Frequencies --  -1044.0596             -1041.4137             -1035.0438
 Red. masses --      1.0319                 1.0237                 1.0445
 Frc consts  --      0.6627                 0.6541                 0.6593
 IR Inten    --      0.9445                 0.6488                 2.0881

                     10                     11                     12
                      A                      A                      A
 Frequencies --  -1019.5141             -1007.6149              -981.6292
 Red. masses --      1.0751                 1.0428                 1.0414
 Frc consts  --      0.6584                 0.6238                 0.5912
 IR Inten    --      2.9227                 1.6906                 8.5330

                     13                     14                     15
                      A                      A                      A
 Frequencies --   -971.2727              -925.3497              -922.7675
 Red. masses --      1.0250                 1.0799                 1.0713
 Frc consts  --      0.5697                 0.5448                 0.5375
 IR Inten    --      0.5106                 2.5134                 1.1464

                     16                     17                     18
                      A                      A                      A
 Frequencies --   -581.2606              -539.1623              -507.0602
 Red. masses --      1.3689                 1.3008                 1.3174
 Frc consts  --      0.2725                 0.2228                 0.1996
 IR Inten    --      0.5563                 0.8170                 0.6059

                     19                     20                     21
                      A                      A                      A
 Frequencies --   -487.3931              -458.3163              -450.8749
 Red. masses --      1.2611                 1.2688                 1.5657
 Frc consts  --      0.1765                 0.1570                 0.1875
 IR Inten    --      0.4545                 4.1647                 0.4979

                     22                     23                     24
                      A                      A                      A
 Frequencies --   -383.8243              -344.5161              -285.4076
 Red. masses --      1.5661                 1.4144                 1.4742
 Frc consts  --      0.1359                 0.0989                 0.0708
 IR Inten    --      0.9167                 1.6947                 1.1672

                     25                     26                     27
                      A                      A                      A
 Frequencies --   -226.0625              -190.1245              -102.6737
 Red. masses --      1.2247                 1.2370                 1.4860
 Frc consts  --      0.0369                 0.0263                 0.0092
 IR Inten    --      1.6094                 0.9407                 1.2431

                     28                     29                     30
                      A                      A                      A
 Frequencies --    170.7603               218.1800               303.3588
 Red. masses --      1.6525                 1.4824                 1.8881
 Frc consts  --      0.0284                 0.0416                 0.1024
 IR Inten    --      0.5325                 4.2720                 2.1972

                     31                     32                     33
                      A                      A                      A
 Frequencies --    334.1107               350.3509               382.0436
 Red. masses --      1.2117                 2.0460                 1.5361
 Frc consts  --      0.0797                 0.1480                 0.1321
 IR Inten    --     19.8216                 5.4900                 2.2506

                     34                     35                     36
                      A                      A                      A
 Frequencies --    399.5294               430.8961               445.8494
 Red. masses --      1.2043                 1.6759                 1.7825
 Frc consts  --      0.1133                 0.1833                 0.2088
 IR Inten    --     14.6575                 4.9353                 4.8107

                     37                     38                     39
                      A                      A                      A
 Frequencies --    470.7438               478.7397               509.8574
 Red. masses --      1.9177                 2.4067                 1.6633
 Frc consts  --      0.2504                 0.3250                 0.2548
 IR Inten    --      0.9894                 1.1588                 0.9010

                     40                     41                     42
                      A                      A                      A
 Frequencies --    532.6209               558.9477               584.5507
 Red. masses --      1.4172                 2.5992                 2.2757
 Frc consts  --      0.2369                 0.4784                 0.4582
 IR Inten    --      1.9423                 0.3842                 0.9180

                     43                     44                     45
                      A                      A                      A
 Frequencies --    600.0261               613.1194               634.7761
 Red. masses --      2.1831                 2.7326                 3.3000
 Frc consts  --      0.4631                 0.6052                 0.7834
 IR Inten    --      1.6726                 0.7559                 5.7376

                     46                     47                     48
                      A                      A                      A
 Frequencies --    654.6210               674.2986               694.3775
 Red. masses --      3.1705                 4.0258                 3.6526
 Frc consts  --      0.8005                 1.0785                 1.0376
 IR Inten    --      0.9103                 1.4094                 4.2064

                     49                     50                     51
                      A                      A                      A
 Frequencies --    702.8610               750.6886               790.5688
 Red. masses --      4.1382                 3.1010                 3.0375
 Frc consts  --      1.2045                 1.0296                 1.1185
 IR Inten    --      0.5506                 1.0891                 2.7628

                     52                     53                     54
                      A                      A                      A
 Frequencies --    800.2759               807.8318               831.8953
 Red. masses --      3.3670                 2.7038                 3.1951
 Frc consts  --      1.2705                 1.0396                 1.3028
 IR Inten    --      1.6035                 0.5082                 4.3243

                     55                     56                     57
                      A                      A                      A
 Frequencies --    840.7357               864.6549               893.8987
 Red. masses --      3.2692                 3.0471                 2.9239
 Frc consts  --      1.3615                 1.3422                 1.3766
 IR Inten    --      1.6342                 0.2934                 5.3663

                     58                     59                     60
                      A                      A                      A
 Frequencies --    933.6512               944.7327               950.6552
 Red. masses --      1.9117                 1.7703                 1.9360
 Frc consts  --      0.9818                 0.9309                 1.0309
 IR Inten    --      3.2168                 8.6060                 2.1484

                     61                     62                     63
                      A                      A                      A
 Frequencies --    955.6986               965.8338               967.6026
 Red. masses --      1.6447                 1.1526                 1.2812
 Frc consts  --      0.8850                 0.6335                 0.7067
 IR Inten    --     11.8673                 8.6471                 2.1909

                     64                     65                     66
                      A                      A                      A
 Frequencies --    977.4557               980.2289               985.3172
 Red. masses --      1.2253                 1.0901                 1.1166
 Frc consts  --      0.6897                 0.6171                 0.6387
 IR Inten    --      9.9362                 4.6831                 9.1110

                     67                     68                     69
                      A                      A                      A
 Frequencies --    987.4813               989.6016              1002.8868
 Red. masses --      1.1436                 1.1873                 1.3218
 Frc consts  --      0.6570                 0.6851                 0.7833
 IR Inten    --      9.6975                10.7711                 2.8618

                     70                     71                     72
                      A                      A                      A
 Frequencies --   1007.1382              1014.7478              1041.6593
 Red. masses --      1.2126                 1.2576                 2.0418
 Frc consts  --      0.7247                 0.7630                 1.3053
 IR Inten    --      7.2520                10.2601                 4.9014

                     73                     74                     75
                      A                      A                      A
 Frequencies --   1074.4659              1075.4460              1106.1712
 Red. masses --      3.1371                 1.8708                 2.3659
 Frc consts  --      2.1339                 1.2749                 1.7057
 IR Inten    --     12.0228                33.6581                23.6514

                     76                     77                     78
                      A                      A                      A
 Frequencies --   1149.2756              1171.1126              1180.9213
 Red. masses --      4.6009                 5.5002                 4.6643
 Frc consts  --      3.5805                 4.4446                 3.8325
 IR Inten    --     30.0879                 3.6363                12.5843

                     79                     80                     81
                      A                      A                      A
 Frequencies --   1200.6615              1227.3955              1245.2868
 Red. masses --      3.5859                 5.8063                 4.3669
 Frc consts  --      3.0457                 5.1537                 3.9899
 IR Inten    --      1.7968                 4.7441                21.4849

                     82                     83                     84
                      A                      A                      A
 Frequencies --   1268.2680              1271.0203              1278.7344
 Red. masses --      5.3618                 5.0510                 4.1157
 Frc consts  --      5.0814                 4.8077                 3.9651
 IR Inten    --     12.3971                 5.7498                13.2242

                     85                     86                     87
                      A                      A                      A
 Frequencies --   1288.2167              1298.6870              1310.6613
 Red. masses --      7.2095                 6.5983                 6.4436
 Frc consts  --      7.0491                 6.5568                 6.5217
 IR Inten    --      5.2499                 7.0044                 1.8604

                     88                     89                     90
                      A                      A                      A
 Frequencies --   4332.3400              4350.4809              4355.6907
 Red. masses --      1.0861                 1.0871                 1.0867
 Frc consts  --     12.0111                12.1225                12.1475
 IR Inten    --     39.7618                10.2733                12.8595

                     91                     92                     93
                      A                      A                      A
 Frequencies --   4400.8361              4400.8926              4404.1454
 Red. masses --      1.0597                 1.0598                 1.0596
 Frc consts  --     12.0921                12.0938                12.1091
 IR Inten    --     76.8512                14.7709                41.7934

                     94                     95                     96
                      A                      A                      A
 Frequencies --   4407.5784              4415.9785              4424.2100
 Red. masses --      1.0600                 1.0599                 1.0593
 Frc consts  --     12.1323                12.1783                12.2159
 IR Inten    --     46.6549                31.3109                10.4494

                     97                     98                     99
                      A                      A                      A
 Frequencies --   4456.6468              4466.3769              4468.4990
 Red. masses --      1.0312                 1.0318                 1.0321
 Frc consts  --     12.0674                12.1275                12.1422
 IR Inten    --     45.5564                 9.6309                11.9729

                    100                    101                    102
                      A                      A                      A
 Frequencies --   4521.7945              4524.8727              4527.2212
 Red. masses --      1.1089                 1.1082                 1.1085
 Frc consts  --     13.3582                13.3678                13.3858
 IR Inten    --     23.0004                17.7293                24.2507

                    103                    104                    105
                      A                      A                      A
 Frequencies --   4531.1970              4536.2832              4552.2024
 Red. masses --      1.1096                 1.1094                 1.1101
 Frc consts  --     13.4227                13.4503                13.5537
 IR Inten    --      5.1816                14.6702                 6.9129

                    106                    107                    108
                      A                      A                      A
 Frequencies --   4651.0554              4672.5135              4674.9998
 Red. masses --      1.1068                 1.1068                 1.1069
 Frc consts  --     14.1060                14.2373                14.2540
 IR Inten    --     20.0872                 5.4242                 4.2545

                    109                    110                    111
                      A                      A                      A
 Frequencies --   4678.3754              4679.4605              4682.6630
 Red. masses --      1.1071                 1.1068                 1.1076
 Frc consts  --     14.2761                14.2797                14.3100
 IR Inten    --      6.2644                 5.6131                 4.2838

 - Thermochemistry -
 -------------------
 Temperature   298.150 Kelvin.  Pressure   1.00000 Atm.
 Atom     1 has atomic number  6 and mass  12.00000

 Molecular mass:   208.19395 amu.
 Principal axes and moments of inertia in atomic units:
                           1         2         3
     Eigenvalues --  1601.105764199.517714529.00372
           X            0.99999   0.00324  -0.00072
           Y           -0.00324   0.99997  -0.00678
           Z            0.00069   0.00678   0.99998
 This molecule is an asymmetric top.
 Rotational symmetry number  1.
 Warning -- assumption of classical behavior for rotation
           may cause significant error
 Rotational temperatures (Kelvin)      0.05410     0.02062     0.01912
 Rotational constants (GHZ):           1.12718     0.42975     0.39849
   27 imaginary frequencies ignored.
 Zero-point vibrational energy     946799.4 (Joules/Mol)
                                  226.29049 (Kcal/Mol)
 Warning -- explicit consideration of  17 degrees of freedom as
           vibrations may cause significant error
 Vibrational temperatures:    245.69   313.91   436.47   480.71   504.08
          (Kelvin)            549.68   574.83   619.96   641.48   677.30
                              688.80   733.57   766.32   804.20   841.04
                              863.30   882.14   913.30   941.85   970.17
                              999.05  1011.26  1080.07  1137.45  1151.42
                             1162.29  1196.91  1209.63  1244.05  1286.12
                             1343.32  1359.26  1367.78  1375.04  1389.62
                             1392.16  1406.34  1410.33  1417.65  1420.77
                             1423.82  1442.93  1449.05  1460.00  1498.72
                             1545.92  1547.33  1591.53  1653.55  1684.97
                             1699.08  1727.48  1765.95  1791.69  1824.75
                             1828.71  1839.81  1853.46  1868.52  1885.75
                             6233.27  6259.37  6266.87  6331.82  6331.90
                             6336.58  6341.52  6353.61  6365.45  6412.12
                             6426.12  6429.17  6505.85  6510.28  6513.66
                             6519.38  6526.70  6549.60  6691.83  6722.70
                             6726.28  6731.14  6732.70  6737.31

 Zero-point correction=                           0.360617 (Hartree/Particle)
 Thermal correction to Energy=                    0.370562
 Thermal correction to Enthalpy=                  0.371507
 Thermal correction to Gibbs Free Energy=         0.326129
 Sum of electronic and zero-point Energies=           -617.474768
 Sum of electronic and thermal Energies=              -617.464823
 Sum of electronic and thermal Enthalpies=            -617.463879
 Sum of electronic and thermal Free Energies=         -617.509256

                     E (Thermal)             CV                S
                      KCal/Mol        Cal/Mol-Kelvin    Cal/Mol-Kelvin
 Total                  232.531             47.916             95.505
 Electronic               0.000              0.000              0.000
 Translational            0.889              2.981             41.904
 Rotational               0.889              2.981             31.788
 Vibrational            230.754             41.954             21.814
 Vibration     1          0.626              1.878              2.427
 Vibration     2          0.646              1.813              1.974
 Vibration     3          0.695              1.667              1.398
 Vibration     4          0.716              1.607              1.240
 Vibration     5          0.727              1.575              1.165
 Vibration     6          0.752              1.508              1.031
 Vibration     7          0.766              1.471              0.964
 Vibration     8          0.792              1.403              0.856
 Vibration     9          0.805              1.370              0.808
 Vibration    10          0.828              1.315              0.735
 Vibration    11          0.835              1.297              0.713
 Vibration    12          0.865              1.228              0.634
 Vibration    13          0.888              1.178              0.581
 Vibration    14          0.915              1.120              0.526
 Vibration    15          0.941              1.065              0.477
 Vibration    16          0.958              1.032              0.450
 Vibration    17          0.972              1.004              0.428

 1\1\GINC-JST212\Freq\RPBE1PBE\def2SVP\C13H24N2\LAPLAZA\04-Mar-2023\0\\
 #p pop=(regular,nbo,savenbos) freq=noraman def2svp empiricaldispersion
 =gd3bj output=wfx pbe1pbe\\BUYTUM_Complex_0_Ligand_0_NN_Cu_oriented\\0
 ,1\C,0.21656271,-3.08454478,-1.2122422\H,0.24702482,-3.65456878,-2.008
 78613\C,1.47460545,-2.18562581,-1.22619459\H,2.24643882,-2.7869603,-1.
 18995755\C,1.74885358,-1.19527624,-2.31976599\H,0.97179341,-0.64218731
 ,-2.49326863\H,2.00725658,-1.64397663,-3.14012085\C,2.94370003,-0.3366
 9116,-1.741578\C,2.83021193,-0.59587038,-0.23025112\H,3.57852403,-1.13

 Normal termination of Gaussian 16 at Sat Mar  4 12:37:38 2023.
