 Gaussian 16, Revision C.01,
 Gaussian 16:  ES64L-G16RevC.01  3-Jul-2019

 ----------------------------------------------------------------------
 #p pop=(regular,nbo,savenbos) freq=noraman def2svp empiricaldispersion
 =gd3bj output=wfx pbe1pbe
 ----------------------------------------------------------------------

 ----------------------------------------
 CACZUD_Complex_2_Ligand_3_NN_Cu_oriented
 ----------------------------------------
 Symbolic Z-matrix:
 Charge =  0 Multiplicity = 1

                         Standard orientation:
 ---------------------------------------------------------------------
 Center     Atomic      Atomic             Coordinates (Angstroms)
 Number     Number       Type             X           Y           Z
 ---------------------------------------------------------------------
      1          8           0        1.796371   -1.457751   -1.974403
      2          7           0        0.601114    0.396821    0.845283
      3          7           0       -1.950388    1.075535    0.624446
      4          7           0        0.244835   -1.600788   -0.294286
      5          1           0       -0.005923   -2.413561   -0.426213
      6          6           0       -1.707360   -0.189528    0.255758
      7          6           0        1.212538   -1.007585   -0.989399
      8          6           0       -0.358669   -0.739785    0.727795
      9          6           0        2.966652    0.539381   -0.087653
     10          1           0        3.444295    0.440821   -0.937969
     11          6           0        3.321517    1.926662    0.460276
     12          1           0        2.984751    2.602993   -0.131847
     13          6           0       -3.878886   -0.395948   -0.696169
     14          1           0       -4.543948   -0.875727   -1.134682
     15          6           0       -3.139774    1.632276    0.340312
     16          1           0       -3.298504    2.517628    0.578094
     17          6           0       -2.648542   -0.951855   -0.423587
     18          1           0       -2.461837   -1.822641   -0.689835
     19          6           0        1.456351    0.384786   -0.407223
     20          6           0        0.969986    1.393581   -1.437298
     21          1           0        0.951373    2.267454   -1.039506
     22          1           0        1.568270    1.398232   -2.189598
     23          1           0        0.088379    1.157271   -1.731976
     24          6           0       -4.145252    0.906751   -0.297472
     25          1           0       -4.970732    1.301511   -0.457578
     26          6           0        3.488137   -0.542064    0.852511
     27          1           0        3.531336   -0.202685    1.749294
     28          1           0        2.896569   -1.298732    0.826493
     29          1           0        4.364278   -0.812090    0.569385
     30          6           0       -0.521375   -1.464192    2.064777
     31          1           0       -0.709579   -0.830859    2.761856
     32          1           0       -1.238310   -2.100907    2.009134
     33          1           0        0.299128   -1.922583    2.262044
     34          1           0        1.169960    0.157548    1.514106
     35          1           0        4.275150    2.009005    0.531844
     36          1           0        2.923513    2.033465    1.328318
 ---------------------------------------------------------------------

 SCF Done:  E(RPBE1PBE) =  -744.615273341     A.U. after   15 cycles

 The electronic state is 1-A.
 Alpha  occ. eigenvalues --  -19.16289 -14.40732 -14.38447 -14.36735 -10.31615
 Alpha  occ. eigenvalues --  -10.31467 -10.27567 -10.26138 -10.25820 -10.24325
 Alpha  occ. eigenvalues --  -10.23611 -10.23167 -10.21780 -10.20645 -10.17938
 Alpha  occ. eigenvalues --  -10.17595 -10.17436  -1.05179  -0.99150  -0.96081
 Alpha  occ. eigenvalues --   -0.90958  -0.84191  -0.83443  -0.81195  -0.78892
 Alpha  occ. eigenvalues --   -0.76810  -0.73317  -0.69487  -0.68497  -0.67590
 Alpha  occ. eigenvalues --   -0.64860  -0.63154  -0.57670  -0.57508  -0.53456
 Alpha  occ. eigenvalues --   -0.51970  -0.51621  -0.50492  -0.49452  -0.48113
 Alpha  occ. eigenvalues --   -0.47262  -0.45805  -0.45613  -0.44939  -0.44098
 Alpha  occ. eigenvalues --   -0.42884  -0.42471  -0.42272  -0.41963  -0.41121
 Alpha  occ. eigenvalues --   -0.40928  -0.38797  -0.38567  -0.37468  -0.34588
 Alpha  occ. eigenvalues --   -0.34146  -0.33496  -0.30618  -0.28445  -0.28055
 Alpha  occ. eigenvalues --   -0.27299  -0.25733  -0.23146
 Alpha virt. eigenvalues --   -0.02831  -0.01974   0.04090   0.06665   0.09042
 Alpha virt. eigenvalues --    0.10386   0.11246   0.12493   0.12731   0.13402
 Alpha virt. eigenvalues --    0.13588   0.13982   0.14683   0.15264   0.16246

 Mulliken charges:
               1
     1  O   -0.281831
     2  N   -0.071645
     3  N   -0.157073
     4  N   -0.095987
     5  H    0.043479
     6  C    0.009324
     7  C    0.210604
     8  C   -0.120878
     9  C   -0.177592
    10  H   -0.004820
    11  C    0.256288
    12  H   -0.037580
    13  C    0.158698
    14  H   -0.085386
    15  C    0.200908
    16  H   -0.072398
    17  C    0.107321
    18  H   -0.119461
    19  C   -0.394360
    20  C    0.363520
    21  H   -0.020762
    22  H   -0.021584
    23  H   -0.038255
    24  C    0.031067
    25  H   -0.083735
    26  C    0.221907
    27  H   -0.032123
    28  H   -0.033437
    29  H   -0.017250
    30  C    0.324945
    31  H   -0.004306
    32  H   -0.030770
    33  H   -0.021262
    34  H    0.048066
    35  H   -0.024913
    36  H   -0.028719
 Sum of Mulliken charges =  -0.00000

 Dipole moment (field-independent basis, Debye):
    X=             -2.7986    Y=             -0.8449    Z=              2.2236  Tot=              3.6729
 Quadrupole moment (field-independent basis, Debye-Ang):
   XX=            -89.3812   YY=            -97.1478   ZZ=           -105.7825
   XY=              5.1654   XZ=              8.8691   YZ=             -7.2814

  Exact polarizability:     165.951      -4.099     130.861       5.137       2.575     112.780
 Approx polarizability:     214.477      -7.138     205.422       6.283      15.912     172.798

 Summary of Natural Population Analysis:

                                       Natural Population
                Natural  -----------------------------------------------
    Atom  No    Charge         Core      Valence    Rydberg      Total
 -----------------------------------------------------------------------
      O    1   -0.64753      1.99973     6.63780    0.01000     8.64753
      N    2   -0.67122      1.99935     5.65152    0.02034     7.67122
      N    3   -0.47329      1.99927     5.45704    0.01698     7.47329
      N    4   -0.63025      1.99904     5.61208    0.01914     7.63025
      H    5    0.35894      0.00000     0.63478    0.00629     0.64106
      C    6    0.20557      1.99892     3.76408    0.03142     5.79443
      C    7    0.71419      1.99905     3.23049    0.05627     5.28581
      C    8    0.34300      1.99904     3.63122    0.02674     5.65700
      C    9   -0.19147      1.99900     4.17545    0.01702     6.19147
      H   10    0.20288      0.00000     0.79119    0.00593     0.79712
      C   11   -0.53975      1.99918     4.52989    0.01069     6.53975
      H   12    0.18743      0.00000     0.81013    0.00244     0.81257
      C   13   -0.12427      1.99912     4.11120    0.01395     6.12427
      H   14    0.17188      0.00000     0.82522    0.00290     0.82812
      C   15    0.12265      1.99912     3.85771    0.02052     5.87735
      H   16    0.15048      0.00000     0.84666    0.00286     0.84952
      C   17   -0.21309      1.99897     4.19918    0.01494     6.21309
      H   18    0.17637      0.00000     0.82035    0.00328     0.82363
      C   19    0.07675      1.99895     3.90033    0.02398     5.92325
      C   20   -0.54444      1.99911     4.53173    0.01360     6.54444
      H   21    0.19935      0.00000     0.79791    0.00274     0.80065
      H   22    0.19800      0.00000     0.79890    0.00310     0.80200
      H   23    0.19587      0.00000     0.80165    0.00248     0.80413
      C   24   -0.20625      1.99912     4.19428    0.01285     6.20625
      H   25    0.17094      0.00000     0.82591    0.00315     0.82906
      C   26   -0.55541      1.99917     4.54487    0.01138     6.55541
      H   27    0.18056      0.00000     0.81673    0.00271     0.81944
      H   28    0.18426      0.00000     0.81271    0.00302     0.81574
      H   29    0.19919      0.00000     0.79839    0.00242     0.80081
      C   30   -0.55003      1.99908     4.54060    0.01035     6.55003
      H   31    0.20887      0.00000     0.78786    0.00327     0.79113
      H   32    0.19631      0.00000     0.80134    0.00235     0.80369
      H   33    0.19447      0.00000     0.80236    0.00317     0.80553
      H   34    0.33812      0.00000     0.65552    0.00636     0.66188
      H   35    0.18835      0.00000     0.80914    0.00251     0.81165
      H   36    0.18254      0.00000     0.81437    0.00309     0.81746
 =======================================================================
   * Total *   -0.00000     33.98521    91.62058    0.39421   126.00000

 ******   26 imaginary frequencies (negative Signs) ******

                      1                      2                      3
                      A                      A                      A
 Frequencies --  -1880.3071             -1459.6678             -1407.9407
 Red. masses --      1.0756                 1.0825                 1.0091
 Frc consts  --      2.2405                 1.3590                 1.1785
 IR Inten    --    130.3099                50.1160                 0.0371

                      4                      5                      6
                      A                      A                      A
 Frequencies --  -1386.3540             -1384.6444             -1379.9665
 Red. masses --      1.0081                 1.0100                 1.0097
 Frc consts  --      1.1416                 1.1409                 1.1328
 IR Inten    --      0.0545                 0.0760                 0.0034

                      7                      8                      9
                      A                      A                      A
 Frequencies --  -1339.4783             -1300.4905             -1292.7838
 Red. masses --      1.0505                 1.0257                 1.0518
 Frc consts  --      1.1105                 1.0221                 1.0357
 IR Inten    --      0.3785                 1.1514                17.4642

                     10                     11                     12
                      A                      A                      A
 Frequencies --  -1202.7527             -1178.6162             -1022.6915
 Red. masses --      1.0339                 1.0987                 1.0755
 Frc consts  --      0.8813                 0.8992                 0.6627
 IR Inten    --      0.4760                73.7859                14.7753

                     13                     14                     15
                      A                      A                      A
 Frequencies --  -1013.5729             -1008.0580              -993.2521
 Red. masses --      1.0394                 1.0467                 1.0461
 Frc consts  --      0.6292                 0.6267                 0.6080
 IR Inten    --      6.0242                 1.6140                13.4335

                     16                     17                     18
                      A                      A                      A
 Frequencies --   -986.6778              -974.8931              -971.0646
 Red. masses --      1.0508                 1.0485                 1.0304
 Frc consts  --      0.6027                 0.5871                 0.5725
 IR Inten    --      1.5113                 5.8871                 5.5620

                     19                     20                     21
                      A                      A                      A
 Frequencies --   -964.5076              -954.7054              -893.5637
 Red. masses --      1.0866                 1.0315                 1.1260
 Frc consts  --      0.5956                 0.5539                 0.5297
 IR Inten    --      0.0376                 0.4240                 8.0545

                     22                     23                     24
                      A                      A                      A
 Frequencies --   -772.9315              -715.6192              -351.0125
 Red. masses --      1.0966                 1.0920                 1.9146
 Frc consts  --      0.3860                 0.3295                 0.1390
 IR Inten    --      8.5580                10.6100                 1.9329

                     25                     26                     27
                      A                      A                      A
 Frequencies --   -238.9724              -173.8183               149.5933
 Red. masses --      2.3180                 3.0358                 8.5006
 Frc consts  --      0.0780                 0.0540                 0.1121
 IR Inten    --      8.5971                 2.5220                 2.3911

                     28                     29                     30
                      A                      A                      A
 Frequencies --    188.7685               196.7590               251.8391
 Red. masses --      6.8969                 6.4248                 7.9444
 Frc consts  --      0.1448                 0.1465                 0.2969
 IR Inten    --      2.1483                 1.1692                 0.4474

                     31                     32                     33
                      A                      A                      A
 Frequencies --    320.3301               344.7368               384.2990
 Red. masses --      3.4188                 6.2957                 1.7558
 Frc consts  --      0.2067                 0.4408                 0.1528
 IR Inten    --      5.8783                 6.3361                 6.2070

                     34                     35                     36
                      A                      A                      A
 Frequencies --    392.7699               396.5007               405.5826
 Red. masses --      2.1272                 2.4792                 1.6276
 Frc consts  --      0.1933                 0.2296                 0.1577
 IR Inten    --     12.9514                14.0929                14.2161

                     37                     38                     39
                      A                      A                      A
 Frequencies --    435.7175               442.6932               453.4575
 Red. masses --      4.0187                 1.3989                 1.6289
 Frc consts  --      0.4495                 0.1615                 0.1973
 IR Inten    --      4.9672                22.5718                 5.8322

                     40                     41                     42
                      A                      A                      A
 Frequencies --    460.8947               496.3919               516.5965
 Red. masses --      2.8346                 4.2592                 5.2863
 Frc consts  --      0.3548                 0.6183                 0.8312
 IR Inten    --      1.2681                 2.6071                 1.2672

                     43                     44                     45
                      A                      A                      A
 Frequencies --    524.3011               528.9330               594.1626
 Red. masses --      4.5243                 3.7996                 8.0911
 Frc consts  --      0.7328                 0.6263                 1.6829
 IR Inten    --      1.5872                 4.9044                 5.4238

                     46                     47                     48
                      A                      A                      A
 Frequencies --    607.0570               656.5299               673.9143
 Red. masses --      4.4421                 3.2181                 3.6860
 Frc consts  --      0.9645                 0.8173                 0.9863
 IR Inten    --      6.0581                 5.8926                 4.3330

                     49                     50                     51
                      A                      A                      A
 Frequencies --    686.1018               733.1370               763.2795
 Red. masses --      6.5977                 5.0010                 2.9176
 Frc consts  --      1.8299                 1.5837                 1.0015
 IR Inten    --      3.1982                 6.4963                 3.3726

                     52                     53                     54
                      A                      A                      A
 Frequencies --    776.4802               783.2225               789.8934
 Red. masses --      5.7142                 2.4121                 3.9349
 Frc consts  --      2.0299                 0.8718                 1.4465
 IR Inten    --      2.3621                 3.6133                36.4843

                     55                     56                     57
                      A                      A                      A
 Frequencies --    810.9551               838.0598               855.3948
 Red. masses --      5.2949                 8.5688                 2.5101
 Frc consts  --      2.0516                 3.5459                 1.0821
 IR Inten    --     12.6690                 1.8961                38.4622

                     58                     59                     60
                      A                      A                      A
 Frequencies --    881.0652               951.0478               957.1033
 Red. masses --      3.1757                 1.3389                 1.2107
 Frc consts  --      1.4525                 0.7135                 0.6534
 IR Inten    --      1.8039                15.6127                21.5105

                     61                     62                     63
                      A                      A                      A
 Frequencies --    964.4108               968.2338               985.6673
 Red. masses --      1.1103                 1.1620                 1.0790
 Frc consts  --      0.6084                 0.6418                 0.6176
 IR Inten    --      3.8185                37.1219                 4.2550

                     64                     65                     66
                      A                      A                      A
 Frequencies --    989.9214              1010.4873              1035.5936
 Red. masses --      1.3755                 1.0308                 7.6090
 Frc consts  --      0.7942                 0.6201                 4.8079
 IR Inten    --     10.8682                 1.7705                 2.9865

                     67                     68                     69
                      A                      A                      A
 Frequencies --   1076.9666              1108.2353              1121.2590
 Red. masses --      1.4089                 3.8064                 2.5141
 Frc consts  --      0.9628                 2.7544                 1.8623
 IR Inten    --      0.9315                22.6844                14.2343

                     70                     71                     72
                      A                      A                      A
 Frequencies --   1148.4024              1168.4197              1199.2818
 Red. masses --      4.3203                 4.4557                 4.0153
 Frc consts  --      3.3570                 3.5839                 3.4026
 IR Inten    --      9.0981                 4.5548                10.2112

                     73                     74                     75
                      A                      A                      A
 Frequencies --   1243.6107              1248.8872              1264.4781
 Red. masses --      7.9241                 5.9559                 5.9708
 Frc consts  --      7.2205                 5.4732                 5.6248
 IR Inten    --     65.8145                 6.4519                28.2122

                     76                     77                     78
                      A                      A                      A
 Frequencies --   1278.7543              1332.8368              1379.6711
 Red. masses --      6.4713                 8.9687                 8.7718
 Frc consts  --      6.2348                 9.3871                 9.8376
 IR Inten    --      6.0844                 2.2906                 8.7592

                     79                     80                     81
                      A                      A                      A
 Frequencies --   1411.1751              1481.4943              1629.4361
 Red. masses --      9.1977                10.1376                10.5964
 Frc consts  --     10.7917                13.1095                16.5761
 IR Inten    --      3.9987               172.8627                10.2163

                     82                     83                     84
                      A                      A                      A
 Frequencies --   1642.6522              1795.7720              4365.1353
 Red. masses --     10.5783                12.7041                 1.0874
 Frc consts  --     16.8173                24.1377                12.2083
 IR Inten    --     43.8391               444.5469                 2.5623

                     85                     86                     87
                      A                      A                      A
 Frequencies --   4464.6092              4466.0339              4467.2854
 Red. masses --      1.0324                 1.0321                 1.0324
 Frc consts  --     12.1250                12.1282                12.1393
 IR Inten    --      7.3817                 7.3798                 2.4357

                     88                     89                     90
                      A                      A                      A
 Frequencies --   4469.3009              4666.4739              4669.7682
 Red. masses --      1.0326                 1.1064                 1.1066
 Frc consts  --     12.1520                14.1955                14.2178
 IR Inten    --      3.2199                 3.2650                 2.4327

                     91                     92                     93
                      A                      A                      A
 Frequencies --   4671.1754              4673.2090              4678.8226
 Red. masses --      1.1069                 1.1068                 1.1070
 Frc consts  --     14.2298                14.2419                14.2776
 IR Inten    --      1.9608                 2.2388                 4.8410

                     94                     95                     96
                      A                      A                      A
 Frequencies --   4679.1557              4679.9846              4684.4860
 Red. masses --      1.1069                 1.1071                 1.1069
 Frc consts  --     14.2789                14.2861                14.3109
 IR Inten    --      0.1595                 1.4760                 2.3642

                     97                     98                     99
                      A                      A                      A
 Frequencies --   5012.3646              5033.5987              5037.5838
 Red. masses --      1.0751                 1.0875                 1.0891
 Frc consts  --     15.9140                16.2351                16.2841
 IR Inten    --      6.7177                 0.5610                 1.0521

                    100                    101                    102
                      A                      A                      A
 Frequencies --   5044.6508              5056.8779              5860.9110
 Red. masses --      1.0907                 1.0914                 1.0772
 Frc consts  --     16.3539                16.4429                21.8012
 IR Inten    --      0.1275                 0.0561                59.7896

 - Thermochemistry -
 -------------------
 Temperature   298.150 Kelvin.  Pressure   1.00000 Atm.
 Atom     1 has atomic number  8 and mass  15.99491

 Molecular mass:   233.15281 amu.
 Principal axes and moments of inertia in atomic units:
                           1         2         3
     Eigenvalues --  1972.288345603.901645910.33190
           X            0.99977   0.01840   0.01067
           Y           -0.01665   0.98918  -0.14573
           Z           -0.01324   0.14552   0.98927
 This molecule is an asymmetric top.
 Rotational symmetry number  1.
 Warning -- assumption of classical behavior for rotation
           may cause significant error
 Rotational temperatures (Kelvin)      0.04392     0.01546     0.01465
 Rotational constants (GHZ):           0.91505     0.32205     0.30535
   26 imaginary frequencies ignored.
 Zero-point vibrational energy     827903.4 (Joules/Mol)
                                  197.87366 (Kcal/Mol)
 Warning -- explicit consideration of  20 degrees of freedom as
           vibrations may cause significant error
 Vibrational temperatures:    215.23   271.60   283.09   362.34   460.88
          (Kelvin)            496.00   552.92   565.11   570.48   583.54
                              626.90   636.94   652.42   663.12   714.20
                              743.27   754.35   761.02   854.87   873.42
                              944.60   969.61   987.15  1054.82  1098.19
                             1117.18  1126.88  1136.48  1166.78  1205.78
                             1230.72  1267.66  1368.35  1377.06  1387.57
                             1393.07  1418.16  1424.28  1453.87  1489.99
                             1549.51  1594.50  1613.24  1652.29  1681.10
                             1725.50  1789.28  1796.87  1819.30  1839.84
                             1917.65  1985.04  2030.37  2131.54  2344.40
                             2363.41  2583.72  6280.46  6423.58  6425.63
                             6427.43  6430.33  6714.02  6718.75  6720.78
                             6723.71  6731.78  6732.26  6733.45  6739.93
                             7211.67  7242.23  7247.96  7258.13  7275.72
                             8432.54

 Zero-point correction=                           0.315332 (Hartree/Particle)
 Thermal correction to Energy=                    0.326304
 Thermal correction to Enthalpy=                  0.327248
 Thermal correction to Gibbs Free Energy=         0.279338
 Sum of electronic and zero-point Energies=           -744.299942
 Sum of electronic and thermal Energies=              -744.288970
 Sum of electronic and thermal Enthalpies=            -744.288025
 Sum of electronic and thermal Free Energies=         -744.335936

                     E (Thermal)             CV                S
                      KCal/Mol        Cal/Mol-Kelvin    Cal/Mol-Kelvin
 Total                  204.759             49.236            100.836
 Electronic               0.000              0.000              0.000
 Translational            0.889              2.981             42.241
 Rotational               0.889              2.981             32.546
 Vibrational            202.981             43.274             26.048
 Vibration     1          0.618              1.903              2.677
 Vibration     2          0.633              1.855              2.240
 Vibration     3          0.636              1.844              2.163
 Vibration     4          0.664              1.760              1.718
 Vibration     5          0.706              1.635              1.308
 Vibration     6          0.723              1.586              1.190
 Vibration     7          0.753              1.504              1.022
 Vibration     8          0.760              1.486              0.990
 Vibration     9          0.763              1.478              0.976
 Vibration    10          0.771              1.458              0.942
 Vibration    11          0.796              1.392              0.840
 Vibration    12          0.802              1.377              0.818
 Vibration    13          0.812              1.353              0.785
 Vibration    14          0.819              1.337              0.764
 Vibration    15          0.852              1.258              0.667
 Vibration    16          0.872              1.213              0.618
 Vibration    17          0.879              1.196              0.600
 Vibration    18          0.884              1.186              0.590
 Vibration    19          0.952              1.044              0.460
 Vibration    20          0.966              1.017              0.438

 Normal termination of Gaussian 16 at Sat Mar  4 12:28:47 2023.
