 Gaussian 16, Revision C.01,
 Gaussian 16:  ES64L-G16RevC.01  3-Jul-2019

 ----------------------------------------------------------------------
 #p pop=(regular,nbo,savenbos) freq=noraman def2svp empiricaldispersion
 =gd3bj output=wfx pbe1pbe
 ----------------------------------------------------------------------

 ----------------------------------------
 CADBEQ_Complex_0_Ligand_2_NN_Cu_oriented
 ----------------------------------------
 Symbolic Z-matrix:
 Charge =  0 Multiplicity = 1

                         Standard orientation:
 ---------------------------------------------------------------------
 Center     Atomic      Atomic             Coordinates (Angstroms)
 Number     Number       Type             X           Y           Z
 ---------------------------------------------------------------------
      1          7           0       -1.810266    1.158236    0.513436
      2          6           0       -0.462953   -1.170714    2.327981
      3          1           0       -1.055695   -1.925726    2.309354
      4          1           0       -0.845530   -0.477875    2.872819
      5          6           0       -2.920961    1.714896    0.015456
      6          1           0       -3.073296    2.622694    0.146905
      7          6           0       -0.259797   -0.647112    0.913127
      8          6           0       -1.572611   -0.139661    0.309400
      9          6           0       -2.457347   -0.945051   -0.393063
     10          1           0       -2.289732   -1.852281   -0.510744
     11          6           0       -3.845308    0.995626   -0.702183
     12          6           0       -3.607257   -0.357090   -0.901364
     13          1           0       -4.225054   -0.871373   -1.369011
     14          7           0        0.693046    0.495844    0.869669
     15          1           0        1.335604    0.338874    1.493988
     16          7           0        0.347114   -1.626659    0.033914
     17          8           0        1.610263   -1.596601   -1.879929
     18          6           0        1.128319   -1.053595   -0.886942
     19          6           0        1.343171    0.410051   -0.475772
     20          1           0        0.866130    0.994403   -1.101660
     21          6           0        2.836443    0.751418   -0.505019
     22          1           0        3.132844    0.655466   -1.433985
     23          6           0        3.095245    2.205292   -0.107931
     24          1           0        4.010804    2.437357   -0.284941
     25          1           0        2.516900    2.776674   -0.618107
     26          1           0        2.911572    2.317026    0.827697
     27          6           0        3.671839   -0.210917    0.328155
     28          1           0        3.396838   -1.112458    0.146364
     29          1           0        4.599826   -0.107733    0.102857
     30          1           0        3.545532   -0.018811    1.260227
     31          1           0        0.382773   -1.437158    2.695603
     32          1           0       -4.610543    1.397207   -1.045306
     33          1           0        0.216967   -2.474275    0.097170
 ---------------------------------------------------------------------

 SCF Done:  E(RPBE1PBE) =  -705.409011048     A.U. after   15 cycles

 The electronic state is 1-A.
 Alpha  occ. eigenvalues --  -19.16669 -14.40522 -14.38207 -14.36693 -10.32010
 Alpha  occ. eigenvalues --  -10.31254 -10.27333 -10.25381 -10.24517 -10.24202
 Alpha  occ. eigenvalues --  -10.23487 -10.22874 -10.21909 -10.20707 -10.17802
 Alpha  occ. eigenvalues --  -10.17585  -1.05447  -0.99565  -0.96215  -0.90816
 Alpha  occ. eigenvalues --   -0.83981  -0.83130  -0.81238  -0.78882  -0.73399
 Alpha  occ. eigenvalues --   -0.72293  -0.69395  -0.67511  -0.65687  -0.63138
 Alpha  occ. eigenvalues --   -0.59192  -0.57644  -0.53857  -0.52104  -0.51475
 Alpha  occ. eigenvalues --   -0.50345  -0.49273  -0.48004  -0.47165  -0.46758
 Alpha  occ. eigenvalues --   -0.45364  -0.44795  -0.43744  -0.42519  -0.42141
 Alpha  occ. eigenvalues --   -0.41701  -0.41104  -0.40685  -0.39309  -0.37774
 Alpha  occ. eigenvalues --   -0.34924  -0.34818  -0.34337  -0.30336  -0.28682
 Alpha  occ. eigenvalues --   -0.28311  -0.27512  -0.25809  -0.22993
 Alpha virt. eigenvalues --   -0.02745  -0.01604   0.03310   0.06620   0.09053
 Alpha virt. eigenvalues --    0.10385   0.11030   0.12756   0.13458   0.13478
 Alpha virt. eigenvalues --    0.14042   0.14427   0.15816   0.16258   0.17087

 Mulliken charges:
               1
     1  N   -0.149752
     2  C    0.319297
     3  H   -0.029900
     4  H   -0.004537
     5  C    0.199632
     6  H   -0.075109
     7  C   -0.149089
     8  C   -0.008055
     9  C    0.121957
    10  H   -0.119451
    11  C    0.038684
    12  C    0.154503
    13  H   -0.084885
    14  N   -0.117885
    15  H    0.055936
    16  N   -0.085835
    17  O   -0.278313
    18  C    0.160111
    19  C    0.046930
    20  H   -0.007510
    21  C   -0.206170
    22  H   -0.000630
    23  C    0.247429
    24  H   -0.024910
    25  H   -0.029007
    26  H   -0.031066
    27  C    0.199565
    28  H   -0.019607
    29  H   -0.022128
    30  H   -0.036154
    31  H   -0.019007
    32  H   -0.084338
    33  H    0.039293
 Sum of Mulliken charges =  -0.00000

 Dipole moment (field-independent basis, Debye):
    X=             -2.2544    Y=             -0.6995    Z=              2.2590  Tot=              3.2673
 Quadrupole moment (field-independent basis, Debye-Ang):
   XX=            -83.8728   YY=            -91.7502   ZZ=            -97.8199
   XY=              4.6479   XZ=              8.4799   YZ=             -9.2237

  Exact polarizability:     149.715      -3.958     124.025       7.352       1.382     106.715
 Approx polarizability:     190.772      -7.312     195.866      12.852      10.977     165.485

 Summary of Natural Population Analysis:

                                       Natural Population
                Natural  -----------------------------------------------
    Atom  No    Charge         Core      Valence    Rydberg      Total
 -----------------------------------------------------------------------
      N    1   -0.47339      1.99927     5.45674    0.01738     7.47339
      C    2   -0.54635      1.99909     4.53674    0.01053     6.54635
      H    3    0.19517      0.00000     0.80241    0.00241     0.80483
      H    4    0.21086      0.00000     0.78580    0.00334     0.78914
      C    5    0.11951      1.99910     3.86072    0.02067     5.88049
      H    6    0.15024      0.00000     0.84680    0.00296     0.84976
      C    7    0.34031      1.99904     3.63355    0.02709     5.65969
      C    8    0.20201      1.99893     3.76681    0.03225     5.79799
      C    9   -0.20879      1.99897     4.19496    0.01486     6.20879
      H   10    0.17847      0.00000     0.81828    0.00325     0.82153
      C   11   -0.20919      1.99912     4.19721    0.01287     6.20919
      C   12   -0.11989      1.99912     4.10678    0.01399     6.11989
      H   13    0.17026      0.00000     0.82686    0.00288     0.82974
      N   14   -0.66695      1.99937     5.64851    0.01908     7.66695
      H   15    0.33608      0.00000     0.65756    0.00637     0.66392
      N   16   -0.64020      1.99905     5.62225    0.01891     7.64020
      O   17   -0.63866      1.99973     6.62898    0.00996     8.63866
      C   18    0.71419      1.99923     3.23343    0.05315     5.28581
      C   19   -0.08725      1.99892     4.06432    0.02402     6.08725
      H   20    0.20432      0.00000     0.79110    0.00458     0.79568
      C   21   -0.18334      1.99906     4.16994    0.01434     6.18334
      H   22    0.20011      0.00000     0.79349    0.00639     0.79989
      C   23   -0.53863      1.99917     4.52877    0.01070     6.53863
      H   24    0.18682      0.00000     0.81064    0.00253     0.81318
      H   25    0.18838      0.00000     0.80900    0.00262     0.81162
      H   26    0.18194      0.00000     0.81496    0.00310     0.81806
      C   27   -0.55293      1.99917     4.54209    0.01167     6.55293
      H   28    0.19184      0.00000     0.80550    0.00265     0.80816
      H   29    0.19491      0.00000     0.80266    0.00244     0.80509
      H   30    0.17343      0.00000     0.82345    0.00311     0.82657
      H   31    0.19302      0.00000     0.80373    0.00326     0.80698
      H   32    0.17333      0.00000     0.82350    0.00316     0.82667
      H   33    0.36038      0.00000     0.63367    0.00595     0.63962
 =======================================================================
   * Total *    0.00000     31.98631    85.64123    0.37245   118.00000

 ******   25 imaginary frequencies (negative Signs) ******

                      1                      2                      3
                      A                      A                      A
 Frequencies --  -1907.3161             -1454.7993             -1390.0638
 Red. masses --      1.0782                 1.0825                 1.0090
 Frc consts  --      2.3110                 1.3499                 1.1487
 IR Inten    --    126.4306                49.2219                 0.0599

                      4                      5                      6
                      A                      A                      A
 Frequencies --  -1384.2104             -1383.1434             -1334.3140
 Red. masses --      1.0089                 1.0101                 1.0481
 Frc consts  --      1.1390                 1.1385                 1.0994
 IR Inten    --      0.0286                 0.0595                 0.7746

                      7                      8                      9
                      A                      A                      A
 Frequencies --  -1312.9505             -1291.7036             -1215.9705
 Red. masses --      1.0555                 1.0244                 1.0883
 Frc consts  --      1.0720                 1.0070                 0.9481
 IR Inten    --     17.1961                 0.2369                82.5238

                     10                     11                     12
                      A                      A                      A
 Frequencies --  -1196.9641             -1025.6052             -1008.5256
 Red. masses --      1.0339                 1.0786                 1.0406
 Frc consts  --      0.8728                 0.6684                 0.6236
 IR Inten    --      0.8337                 8.3254                 2.7896

                     13                     14                     15
                      A                      A                      A
 Frequencies --  -1001.3212              -994.4942              -985.5089
 Red. masses --      1.0382                 1.0691                 1.0351
 Frc consts  --      0.6133                 0.6230                 0.5923
 IR Inten    --      8.3429                 5.7148                 5.3082

                     16                     17                     18
                      A                      A                      A
 Frequencies --   -975.9439              -958.0170              -890.6484
 Red. masses --      1.0358                 1.0854                 1.1235
 Frc consts  --      0.5813                 0.5870                 0.5251
 IR Inten    --      5.1993                 0.3143                 8.9377

                     19                     20                     21
                      A                      A                      A
 Frequencies --   -764.4327              -689.6049              -388.9191
 Red. masses --      1.0974                 1.1126                 1.3837
 Frc consts  --      0.3778                 0.3117                 0.1233
 IR Inten    --      9.0849                 9.3737                 6.7638

                     22                     23                     24
                      A                      A                      A
 Frequencies --   -354.4933              -325.1959              -225.1440
 Red. masses --      1.7001                 1.6708                 2.1363
 Frc consts  --      0.1259                 0.1041                 0.0638
 IR Inten    --      3.5594                 6.0207                 1.7325

                     25                     26                     27
                      A                      A                      A
 Frequencies --   -195.7751               175.9839               200.8012
 Red. masses --      2.9733                 7.9474                 7.1446
 Frc consts  --      0.0671                 0.1450                 0.1697
 IR Inten    --      1.1847                 1.3291                 5.5353

                     28                     29                     30
                      A                      A                      A
 Frequencies --    251.5254               276.7627               346.3146
 Red. masses --      5.9714                 5.2623                 3.5476
 Frc consts  --      0.2226                 0.2375                 0.2507
 IR Inten    --      1.5316                 1.4734                 6.7554

                     31                     32                     33
                      A                      A                      A
 Frequencies --    368.1345               392.8168               397.3569
 Red. masses --      6.1015                 1.3078                 2.2638
 Frc consts  --      0.4872                 0.1189                 0.2106
 IR Inten    --      2.1151                22.2915                 9.3622

                     34                     35                     36
                      A                      A                      A
 Frequencies --    417.1300               441.3389               448.9212
 Red. masses --      2.0132                 1.7926                 1.5554
 Frc consts  --      0.2064                 0.2057                 0.1847
 IR Inten    --      7.4579                15.6820                 5.5598

                     37                     38                     39
                      A                      A                      A
 Frequencies --    501.4600               519.7655               527.6891
 Red. masses --      4.2366                 4.2132                10.7640
 Frc consts  --      0.6277                 0.6706                 1.7660
 IR Inten    --      1.2588                 5.2764                 1.9389

                     40                     41                     42
                      A                      A                      A
 Frequencies --    589.1083               607.8331               636.5755
 Red. masses --      5.6203                 5.5897                 3.1692
 Frc consts  --      1.1492                 1.2168                 0.7567
 IR Inten    --      2.5504                 4.1628                 9.7722

                     43                     44                     45
                      A                      A                      A
 Frequencies --    678.8145               685.5668               735.7846
 Red. masses --      7.1916                 3.5636                 4.9152
 Frc consts  --      1.9524                 0.9868                 1.5678
 IR Inten    --      3.3547                 1.7124                 6.2100

                     46                     47                     48
                      A                      A                      A
 Frequencies --    750.2104               772.7993               794.4759
 Red. masses --      3.3408                 2.8981                 3.1194
 Frc consts  --      1.1078                 1.0197                 1.1601
 IR Inten    --      2.1131                 2.2543                23.3907

                     49                     50                     51
                      A                      A                      A
 Frequencies --    803.8843               833.9492               837.9452
 Red. masses --      2.6141                 2.7727                 5.3138
 Frc consts  --      0.9953                 1.1362                 2.1983
 IR Inten    --      4.8110                36.9765                 9.1632

                     52                     53                     54
                      A                      A                      A
 Frequencies --    865.6190               885.7993               953.3776
 Red. masses --      4.2254                 2.6888                 1.8053
 Frc consts  --      1.8654                 1.2430                 0.9668
 IR Inten    --      4.2580                 7.4757                15.0445

                     55                     56                     57
                      A                      A                      A
 Frequencies --    954.6193               968.8923               975.0552
 Red. masses --      1.4613                 1.1899                 1.0739
 Frc consts  --      0.7846                 0.6581                 0.6016
 IR Inten    --      7.0511                41.4527                 9.8551

                     58                     59                     60
                      A                      A                      A
 Frequencies --    998.8641              1004.1624              1039.4404
 Red. masses --      1.1340                 1.5567                 7.4580
 Frc consts  --      0.6666                 0.9248                 4.7476
 IR Inten    --      0.8088                 5.7058                 4.0414

                     61                     62                     63
                      A                      A                      A
 Frequencies --   1051.8586              1094.2437              1118.8913
 Red. masses --      2.3455                 2.3783                 2.8219
 Frc consts  --      1.5290                 1.6778                 2.0814
 IR Inten    --      2.8197                11.0294                24.9720

                     64                     65                     66
                      A                      A                      A
 Frequencies --   1148.2628              1184.1514              1219.6281
 Red. masses --      4.0717                 4.4523                 5.3969
 Frc consts  --      3.1631                 3.6783                 4.7299
 IR Inten    --     11.7237                10.2392                 3.4956

                     67                     68                     69
                      A                      A                      A
 Frequencies --   1253.3313              1276.5033              1290.6767
 Red. masses --      5.1582                 6.2657                 8.4398
 Frc consts  --      4.7740                 6.0154                 8.2835
 IR Inten    --      8.3675                34.3478                54.5216

                     70                     71                     72
                      A                      A                      A
 Frequencies --   1348.3826              1388.7473              1438.1604
 Red. masses --      8.8906                 9.0068                 9.4913
 Frc consts  --      9.5237                10.2345                11.5662
 IR Inten    --      1.8735                 9.3740                24.6596

                     73                     74                     75
                      A                      A                      A
 Frequencies --   1457.3460              1636.1632              1658.5210
 Red. masses --      9.9620                10.7757                10.5294
 Frc consts  --     12.4659                16.9961                17.0646
 IR Inten    --    155.6208                41.6295                12.5498

                     76                     77                     78
                      A                      A                      A
 Frequencies --   1792.7598              4368.9713              4373.2521
 Red. masses --     12.7497                 1.0870                 1.0874
 Frc consts  --     24.1432                12.2250                12.2526
 IR Inten    --    425.1582                 0.5341                 6.0413

                     79                     80                     81
                      A                      A                      A
 Frequencies --   4465.1260              4465.8537              4469.8804
 Red. masses --      1.0321                 1.0323                 1.0325
 Frc consts  --     12.1237                12.1301                12.1547
 IR Inten    --      7.2958                 7.4311                 2.7806

                     82                     83                     84
                      A                      A                      A
 Frequencies --   4668.6379              4670.6578              4675.8859
 Red. masses --      1.1070                 1.1069                 1.1068
 Frc consts  --     14.2161                14.2268                14.2571
 IR Inten    --      4.2238                 5.4874                 2.2079

                     85                     86                     87
                      A                      A                      A
 Frequencies --   4677.7218              4678.9841              4679.1325
 Red. masses --      1.1068                 1.1068                 1.1069
 Frc consts  --     14.2691                14.2763                14.2787
 IR Inten    --      0.1829                 3.4360                 2.5476

                     88                     89                     90
                      A                      A                      A
 Frequencies --   5021.2419              5030.9890              5036.7499
 Red. masses --      1.0753                 1.0874                 1.0884
 Frc consts  --     15.9743                16.2164                16.2682
 IR Inten    --      5.7385                 0.4850                 0.9450

                     91                     92                     93
                      A                      A                      A
 Frequencies --   5041.9802              5048.3041              5876.8070
 Red. masses --      1.0905                 1.0927                 1.0774
 Frc consts  --     16.3327                16.4068                21.9242
 IR Inten    --      0.5400                 0.4464                67.7479

 - Thermochemistry -
 -------------------
 Temperature   298.150 Kelvin.  Pressure   1.00000 Atm.
 Atom     1 has atomic number  7 and mass  14.00307

 Molecular mass:   219.13716 amu.
 Principal axes and moments of inertia in atomic units:
                           1         2         3
     Eigenvalues --  1866.651895018.286685367.95549
           X            0.99976   0.02069   0.00757
           Y           -0.01973   0.99370  -0.11035
           Z           -0.00981   0.11018   0.99386
 This molecule is an asymmetric top.
 Rotational symmetry number  1.
 Warning -- assumption of classical behavior for rotation
           may cause significant error
 Rotational temperatures (Kelvin)      0.04640     0.01726     0.01614
 Rotational constants (GHZ):           0.96683     0.35963     0.33621
   25 imaginary frequencies ignored.
 Zero-point vibrational energy     749140.9 (Joules/Mol)
                                  179.04898 (Kcal/Mol)
 Warning -- explicit consideration of  16 degrees of freedom as
           vibrations may cause significant error
 Vibrational temperatures:    253.20   288.91   361.89   398.20   498.27
          (Kelvin)            529.66   565.18   571.71   600.16   634.99
                              645.90   721.49   747.83   759.23   847.60
                              874.54   915.89   976.66   986.38  1058.63
                             1079.39  1111.89  1143.07  1156.61  1199.87
                             1205.62  1245.43  1274.47  1371.70  1373.48
                             1394.02  1402.89  1437.14  1444.77  1495.52
                             1513.39  1574.37  1609.84  1652.09  1703.73
                             1754.77  1803.26  1836.60  1857.00  1940.02
                             1998.10  2069.19  2096.80  2354.07  2386.24
                             2579.38  6285.98  6292.13  6424.32  6425.37
                             6431.16  6717.13  6720.03  6727.56  6730.20
                             6732.01  6732.23  7224.45  7238.47  7246.76
                             7254.28  7263.38  8455.41

 Zero-point correction=                           0.285333 (Hartree/Particle)
 Thermal correction to Energy=                    0.294937
 Thermal correction to Enthalpy=                  0.295881
 Thermal correction to Gibbs Free Energy=         0.250402
 Sum of electronic and zero-point Energies=           -705.123678
 Sum of electronic and thermal Energies=              -705.114074
 Sum of electronic and thermal Enthalpies=            -705.113130
 Sum of electronic and thermal Free Energies=         -705.158609

                     E (Thermal)             CV                S
                      KCal/Mol        Cal/Mol-Kelvin    Cal/Mol-Kelvin
 Total                  185.076             42.860             95.719
 Electronic               0.000              0.000              0.000
 Translational            0.889              2.981             42.057
 Rotational               0.889              2.981             32.286
 Vibrational            183.298             36.898             21.376
 Vibration     1          0.628              1.872              2.371
 Vibration     2          0.638              1.839              2.126
 Vibration     3          0.663              1.760              1.720
 Vibration     4          0.678              1.716              1.554
 Vibration     5          0.724              1.583              1.183
 Vibration     6          0.741              1.538              1.088
 Vibration     7          0.760              1.486              0.989
 Vibration     8          0.764              1.476              0.972
 Vibration     9          0.780              1.433              0.902
 Vibration    10          0.801              1.380              0.822
 Vibration    11          0.808              1.363              0.799
 Vibration    12          0.857              1.247              0.654
 Vibration    13          0.875              1.206              0.611
 Vibration    14          0.883              1.189              0.592
 Vibration    15          0.946              1.055              0.469
 Vibration    16          0.967              1.015              0.436

 Normal termination of Gaussian 16 at Sat Mar  4 12:07:15 2023.
