 Gaussian 16, Revision C.01,
 Gaussian 16:  ES64L-G16RevC.01  3-Jul-2019

 ----------------------------------------------------------------------
 #p pop=(regular,nbo,savenbos) freq=noraman def2svp empiricaldispersion
 =gd3bj output=wfx pbe1pbe
 ----------------------------------------------------------------------

 ----------------------------------------
 CAFGAU_Complex_4_Ligand_1_ON_Cu_oriented
 ----------------------------------------
 Symbolic Z-matrix:
 Charge = -1 Multiplicity = 1

                         Standard orientation:
 ---------------------------------------------------------------------
 Center     Atomic      Atomic             Coordinates (Angstroms)
 Number     Number       Type             X           Y           Z
 ---------------------------------------------------------------------
      1          6           0        3.245886    0.223792   -0.169739
      2          6           0        2.338686    0.436226   -1.204456
      3          1           0        2.542147    1.038593   -1.884050
      4          6           0        1.131441   -0.248679   -1.223957
      5          1           0        0.537124   -0.109038   -1.926211
      6          6           0        0.792337   -1.145965   -0.208827
      7          6           0        1.705690   -1.350494    0.830574
      8          1           0        1.497094   -1.944297    1.514955
      9          6           0        2.933620   -0.671778    0.855447
     10          6           0       -0.530109   -1.884457   -0.263665
     11          1           0       -0.791350   -1.998031   -1.191223
     12          1           0       -0.417005   -2.767312    0.122999
     13          6           0       -2.003168    0.127522   -0.156066
     14          1           0       -1.827085    0.090857   -1.119262
     15          6           0       -1.192643    1.260897    0.474479
     16          7           0       -1.629401   -1.163900    0.471301
     17          1           0       -2.363451   -1.700446    0.510596
     18          8           0       -0.795957    1.071649    1.680875
     19          8           0       -1.042846    2.303349   -0.178090
     20          6           0       -3.486407    0.451602    0.089336
     21          1           0       -3.668915    1.363332   -0.187687
     22          8           0       -4.326565   -0.446292   -0.640019
     23          8           0        4.413175    0.934132   -0.216374
     24          1           0        4.946439    0.635450    0.360597
     25          1           0       -3.682023    0.379998    1.036897
     26          1           0       -4.497760   -0.119366   -1.395336
     27          1           0        3.536130   -0.817130    1.548729
 ---------------------------------------------------------------------

 SCF Done:  E(RPBE1PBE) =  -742.384560438     A.U. after   16 cycles

 The electronic state is 1-A.
 Alpha  occ. eigenvalues --  -19.12073 -19.06450 -18.92937 -18.91469 -14.20579
 Alpha  occ. eigenvalues --  -10.17441 -10.11066 -10.10653 -10.10326 -10.10296
 Alpha  occ. eigenvalues --  -10.10060 -10.09473 -10.09247 -10.09095 -10.06995
 Alpha  occ. eigenvalues --   -0.99518  -0.93030  -0.81826  -0.77400  -0.74829
 Alpha  occ. eigenvalues --   -0.71290  -0.66194  -0.65816  -0.62170  -0.57167
 Alpha  occ. eigenvalues --   -0.54025  -0.51617  -0.49598  -0.47089  -0.41302
 Alpha  occ. eigenvalues --   -0.39418  -0.38495  -0.36606  -0.35699  -0.34866
 Alpha  occ. eigenvalues --   -0.33650  -0.32591  -0.31540  -0.30423  -0.28259
 Alpha  occ. eigenvalues --   -0.28041  -0.26449  -0.24321  -0.23678  -0.23075
 Alpha  occ. eigenvalues --   -0.22720  -0.21309  -0.18318  -0.17969  -0.14850
 Alpha  occ. eigenvalues --   -0.14283  -0.11199  -0.08261  -0.03440  -0.03116
 Alpha  occ. eigenvalues --   -0.01136
 Alpha virt. eigenvalues --    0.11612   0.13385   0.18210   0.19839   0.21288
 Alpha virt. eigenvalues --    0.23325   0.23586   0.26130   0.26889   0.27371
 Alpha virt. eigenvalues --    0.28607   0.28976   0.29841   0.30634   0.31325

 Mulliken charges:
               1
     1  C    0.144927
     2  C    0.070649
     3  H   -0.126657
     4  C    0.143253
     5  H   -0.123835
     6  C   -0.113975
     7  C    0.137345
     8  H   -0.128981
     9  C    0.025861
    10  C    0.365031
    11  H   -0.076352
    12  H   -0.071135
    13  C   -0.012201
    14  H   -0.099663
    15  C    0.120344
    16  N   -0.218697
    17  H    0.041837
    18  O   -0.462667
    19  O   -0.429476
    20  C    0.344148
    21  H   -0.043781
    22  O   -0.319066
    23  O   -0.160972
    24  H    0.094542
    25  H   -0.040608
    26  H    0.085606
    27  H   -0.145476
 Sum of Mulliken charges =  -1.00000

 Dipole moment (field-independent basis, Debye):
    X=              3.6390    Y=             -6.5065    Z=             -3.5683  Tot=              8.2650
 Quadrupole moment (field-independent basis, Debye-Ang):
   XX=            -95.5279   YY=           -106.0309   ZZ=            -93.5161
   XY=             -0.6709   XZ=             12.0798   YZ=             -4.6698

  Exact polarizability:     143.516      12.155      98.833       9.637     -11.576      99.154
 Approx polarizability:     187.480      26.233     151.978      18.644     -31.413     171.875

 Summary of Natural Population Analysis:

                                       Natural Population
                Natural  -----------------------------------------------
    Atom  No    Charge         Core      Valence    Rydberg      Total
 -----------------------------------------------------------------------
      C    1    0.33056      1.99881     3.64856    0.02207     5.66944
      C    2   -0.22100      1.99899     4.20595    0.01605     6.22100
      H    3    0.17532      0.00000     0.82117    0.00350     0.82468
      C    4   -0.13913      1.99899     4.12432    0.01582     6.13913
      H    5    0.16954      0.00000     0.82616    0.00430     0.83046
      C    6   -0.04027      1.99904     4.02300    0.01823     6.04027
      C    7   -0.12803      1.99900     4.11278    0.01625     6.12803
      H    8    0.16560      0.00000     0.83096    0.00345     0.83440
      C    9   -0.27335      1.99899     4.25871    0.01564     6.27335
      C   10   -0.16046      1.99895     4.14466    0.01684     6.16046
      H   11    0.15300      0.00000     0.84156    0.00544     0.84700
      H   12    0.17500      0.00000     0.82192    0.00308     0.82500
      C   13   -0.13989      1.99891     4.11547    0.02551     6.13989
      H   14    0.14912      0.00000     0.84089    0.00999     0.85088
      C   15    0.76740      1.99940     3.15601    0.07719     5.23260
      N   16   -0.66583      1.99937     5.64672    0.01975     7.66583
      H   17    0.32148      0.00000     0.66969    0.00883     0.67852
      O   18   -0.78599      1.99976     6.77778    0.00845     8.78599
      O   19   -0.78652      1.99973     6.77687    0.00993     8.78652
      C   20    0.02572      1.99889     3.95930    0.01609     5.97428
      H   21    0.15467      0.00000     0.83843    0.00689     0.84533
      O   22   -0.74874      1.99972     6.73219    0.01683     8.74874
      O   23   -0.66672      1.99966     6.65215    0.01491     8.66672
      H   24    0.42868      0.00000     0.56434    0.00698     0.57132
      H   25    0.15910      0.00000     0.83403    0.00687     0.84090
      H   26    0.41824      0.00000     0.57457    0.00719     0.58176
      H   27    0.16253      0.00000     0.83410    0.00337     0.83747
 =======================================================================
   * Total *   -1.00000     29.98823    81.63230    0.37947   112.00000

 ******   22 imaginary frequencies (negative Signs) ******

                      1                      2                      3
                      A                      A                      A
 Frequencies --  -1835.7564             -1810.1160             -1456.3000
 Red. masses --      1.0695                 1.0672                 1.0712
 Frc consts  --      2.1236                 2.0603                 1.3386
 IR Inten    --    141.4683               107.9814                65.5089

                      4                      5                      6
                      A                      A                      A
 Frequencies --  -1404.5120             -1306.2341             -1300.2186
 Red. masses --      1.0675                 1.0894                 1.1007
 Frc consts  --      1.2407                 1.0952                 1.0963
 IR Inten    --      5.8884               111.9410               110.4604

                      7                      8                      9
                      A                      A                      A
 Frequencies --  -1296.7467             -1262.8226             -1260.3792
 Red. masses --      1.0396                 1.0852                 1.0511
 Frc consts  --      1.0300                 1.0196                 0.9838
 IR Inten    --      1.6660               142.8019                32.2142

                     10                     11                     12
                      A                      A                      A
 Frequencies --  -1066.2622             -1046.0367              -947.7563
 Red. masses --      1.0343                 1.0471                 1.0849
 Frc consts  --      0.6928                 0.6750                 0.5742
 IR Inten    --      0.7280                 0.7528                 7.3645

                     13                     14                     15
                      A                      A                      A
 Frequencies --   -923.1801              -836.9035              -754.4019
 Red. masses --      1.0902                 1.1016                 1.0430
 Frc consts  --      0.5475                 0.4546                 0.3497
 IR Inten    --      4.5932                 1.2328                 6.0472

                     16                     17                     18
                      A                      A                      A
 Frequencies --   -564.3323              -443.7887              -425.8215
 Red. masses --      1.2621                 1.7658                 1.4953
 Frc consts  --      0.2368                 0.2049                 0.1598
 IR Inten    --      4.4394                 2.4177                 4.9445

                     19                     20                     21
                      A                      A                      A
 Frequencies --   -398.1880              -322.7162              -192.3844
 Red. masses --      1.5530                 2.1433                 2.9189
 Frc consts  --      0.1451                 0.1315                 0.0637
 IR Inten    --     13.9637                 3.0101                 3.0633

                     22                     23                     24
                      A                      A                      A
 Frequencies --    -66.6130               105.4674               128.8339
 Red. masses --      7.7675                 6.2528                 5.4713
 Frc consts  --      0.0203                 0.0410                 0.0535
 IR Inten    --      0.1692                23.0366                 5.1266

                     25                     26                     27
                      A                      A                      A
 Frequencies --    196.4973               208.0586               344.4831
 Red. masses --      8.8935                 6.4194                 4.1716
 Frc consts  --      0.2023                 0.1637                 0.2917
 IR Inten    --      1.4939                 1.0971                 1.0029

                     28                     29                     30
                      A                      A                      A
 Frequencies --    393.3549               443.5375               463.4957
 Red. masses --      3.2615                 2.8645                 2.2376
 Frc consts  --      0.2973                 0.3320                 0.2832
 IR Inten    --      5.6308                 1.5633                 1.5511

                     31                     32                     33
                      A                      A                      A
 Frequencies --    527.6273               530.6400               536.8427
 Red. masses --      4.3202                 3.2443                 6.3944
 Frc consts  --      0.7086                 0.5382                 1.0858
 IR Inten    --      4.9713                14.4746                 4.2895

                     34                     35                     36
                      A                      A                      A
 Frequencies --    573.9705               596.4946               651.8281
 Red. masses --      4.1859                 3.4408                 3.6514
 Frc consts  --      0.8125                 0.7213                 0.9141
 IR Inten    --      5.4862                20.5152                30.0018

                     37                     38                     39
                      A                      A                      A
 Frequencies --    686.1377               699.6761               732.4878
 Red. masses --      4.7993                 3.7985                 7.3449
 Frc consts  --      1.3312                 1.0956                 2.3219
 IR Inten    --      1.4023                14.9286                 1.6291

                     40                     41                     42
                      A                      A                      A
 Frequencies --    782.9484               810.9603               816.9803
 Red. masses --      4.9845                 6.7501                 7.2126
 Frc consts  --      1.8003                 2.6155                 2.8364
 IR Inten    --      4.5274                19.2403                12.2835

                     43                     44                     45
                      A                      A                      A
 Frequencies --    834.5473               845.0120               884.4058
 Red. masses --      5.5872                 2.2792                 4.2311
 Frc consts  --      2.2927                 0.9589                 1.9499
 IR Inten    --      2.8246                 2.3459                 2.0029

                     46                     47                     48
                      A                      A                      A
 Frequencies --    912.9039               929.8728               965.6097
 Red. masses --      3.1040                 5.0175                 1.8940
 Frc consts  --      1.5241                 2.5561                 1.0405
 IR Inten    --      5.8344                12.5460                16.8264

                     49                     50                     51
                      A                      A                      A
 Frequencies --   1001.6438              1035.1999              1037.8848
 Red. masses --      1.5606                 1.8269                 5.2840
 Frc consts  --      0.9225                 1.1535                 3.3536
 IR Inten    --     27.9264                31.3692                 3.0435

                     52                     53                     54
                      A                      A                      A
 Frequencies --   1122.0473              1130.6172              1148.4263
 Red. masses --      2.6179                 4.0768                 6.9756
 Frc consts  --      1.9419                 3.0704                 5.4205
 IR Inten    --     71.4997                 7.1580                10.1459

                     55                     56                     57
                      A                      A                      A
 Frequencies --   1172.2525              1293.6972              1355.3761
 Red. masses --      5.1928                 8.0696                 9.0280
 Frc consts  --      4.2043                 7.9574                 9.7715
 IR Inten    --     15.4940                55.0185                11.3254

                     58                     59                     60
                      A                      A                      A
 Frequencies --   1398.3771              1428.7167              1486.5007
 Red. masses --     12.0002                 7.7672                10.0160
 Frc consts  --     13.8257                 9.3413                13.0399
 IR Inten    --    176.4988                 3.3302               148.4945

                     61                     62                     63
                      A                      A                      A
 Frequencies --   1633.5844              1669.1082              1745.2719
 Red. masses --     11.1136                 9.5618                12.6266
 Frc consts  --     17.4738                15.6949                22.6602
 IR Inten    --     78.1238                11.9298               340.0792

                     64                     65                     66
                      A                      A                      A
 Frequencies --   4346.3229              4404.2344              4430.4310
 Red. masses --      1.0864                 1.0595                 1.0594
 Frc consts  --     12.0917                12.1084                12.2522
 IR Inten    --     33.8504                48.3071                14.1765

                     67                     68                     69
                      A                      A                      A
 Frequencies --   4526.3409              4556.5485              5006.8104
 Red. masses --      1.1090                 1.1110                 1.0756
 Frc consts  --     13.3870                13.5905                15.8864
 IR Inten    --     16.2337                 5.9892                 4.5311

                     70                     71                     72
                      A                      A                      A
 Frequencies --   5023.9075              5027.4492              5034.3189
 Red. masses --      1.0875                 1.0878                 1.0908
 Frc consts  --     16.1726                16.1992                16.2876
 IR Inten    --      1.7962                 3.4231                 0.0678

                     73                     74                     75
                      A                      A                      A
 Frequencies --   5042.8515              5885.1020              5889.9036
 Red. masses --      1.0901                 1.0673                 1.0668
 Frc consts  --     16.3325                21.7791                21.8042
 IR Inten    --      0.9928                57.2537                95.2350

 - Thermochemistry -
 -------------------
 Temperature   298.150 Kelvin.  Pressure   1.00000 Atm.
 Atom     1 has atomic number  6 and mass  12.00000

 Molecular mass:   210.07663 amu.
 Principal axes and moments of inertia in atomic units:
                           1         2         3
     Eigenvalues --  1444.028475279.151365784.99831
           X            0.99997   0.00095   0.00703
           Y           -0.00074   0.99955  -0.02990
           Z           -0.00705   0.02989   0.99953
 This molecule is an asymmetric top.
 Rotational symmetry number  1.
 Warning -- assumption of classical behavior for rotation
           may cause significant error
 Rotational temperatures (Kelvin)      0.05998     0.01641     0.01497
 Rotational constants (GHZ):           1.24980     0.34186     0.31197
   22 imaginary frequencies ignored.
 Zero-point vibrational energy     564850.3 (Joules/Mol)
                                  135.00247 (Kcal/Mol)
 Warning -- explicit consideration of  13 degrees of freedom as
           vibrations may cause significant error
 Vibrational temperatures:    151.74   185.36   282.72   299.35   495.63
          (Kelvin)            565.95   638.15   666.87   759.14   763.47
                              772.40   825.82   858.22   937.84   987.20
                             1006.68  1053.89  1126.49  1166.79  1175.45
                             1200.73  1215.78  1272.46  1313.47  1337.88
                             1389.30  1441.14  1489.42  1493.28  1614.38
                             1626.71  1652.33  1686.61  1861.34  1950.08
                             2011.95  2055.60  2138.74  2350.36  2401.47
                             2511.06  6253.39  6336.71  6374.40  6512.40
                             6555.86  7203.68  7228.28  7233.38  7243.26
                             7255.54  8467.35  8474.26

 Zero-point correction=                           0.215140 (Hartree/Particle)
 Thermal correction to Energy=                    0.223903
 Thermal correction to Enthalpy=                  0.224847
 Thermal correction to Gibbs Free Energy=         0.179992
 Sum of electronic and zero-point Energies=           -742.169420
 Sum of electronic and thermal Energies=              -742.160658
 Sum of electronic and thermal Enthalpies=            -742.159714
 Sum of electronic and thermal Free Energies=         -742.204569

                     E (Thermal)             CV                S
                      KCal/Mol        Cal/Mol-Kelvin    Cal/Mol-Kelvin
 Total                  140.501             36.025             94.406
 Electronic               0.000              0.000              0.000
 Translational            0.889              2.981             41.931
 Rotational               0.889              2.981             32.156
 Vibrational            138.724             30.064             20.319
 Vibration     1          0.605              1.945              3.351
 Vibration     2          0.611              1.924              2.963
 Vibration     3          0.636              1.845              2.166
 Vibration     4          0.641              1.828              2.061
 Vibration     5          0.723              1.586              1.191
 Vibration     6          0.761              1.484              0.987
 Vibration     7          0.803              1.375              0.816
 Vibration     8          0.821              1.331              0.756
 Vibration     9          0.883              1.189              0.593
 Vibration    10          0.886              1.182              0.586
 Vibration    11          0.892              1.169              0.572
 Vibration    12          0.930              1.088              0.497
 Vibration    13          0.954              1.039              0.456

 Normal termination of Gaussian 16 at Mon Mar  6 10:47:54 2023.
