 Gaussian 16, Revision C.01,
 Gaussian 16:  ES64L-G16RevC.01  3-Jul-2019

 ----------------------------------------------------------------------
 #p pop=(regular,nbo,savenbos) freq=noraman def2svp empiricaldispersion
 =gd3bj output=wfx pbe1pbe
 ----------------------------------------------------------------------

 ----------------------------------------
 CAMYEV_Complex_1_Ligand_1_ON_Cu_oriented
 ----------------------------------------
 Symbolic Z-matrix:
 Charge = -1 Multiplicity = 1

                         Standard orientation:
 ---------------------------------------------------------------------
 Center     Atomic      Atomic             Coordinates (Angstroms)
 Number     Number       Type             X           Y           Z
 ---------------------------------------------------------------------
      1          8           0        4.516793    1.857093   -0.320261
      2          8           0        2.662649    2.760191    0.321919
      3          7           0        3.323278    1.778222    0.002607
      4          6           0        2.700000    0.481939    0.011466
      5          6           0        1.461304    0.322280    0.616759
      6          1           0        1.023449    1.061739    0.973664
      7          6           0        0.871281   -0.928702    0.695522
      8          6           0       -0.412310   -1.104945    1.449323
      9          1           0       -0.224467   -1.528874    2.301039
     10          1           0       -0.795388   -0.232625    1.630626
     11          8           0        1.066674   -3.264607    0.190783
     12          6           0        1.539311   -2.058305    0.128956
     13          6           0        2.784651   -1.841128   -0.522911
     14          1           0        3.216701   -2.561429   -0.924474
     15          6           0        3.369771   -0.598074   -0.575750
     16          1           0        4.191836   -0.476531   -0.992622
     17          7           0       -1.403831   -1.924440    0.707809
     18          6           0       -1.850970   -1.284752   -0.572620
     19          1           0       -1.066814   -1.201961   -1.154794
     20          6           0       -2.401474    0.109764   -0.337549
     21          6           0       -1.769646    1.217071   -0.886793
     22          1           0       -0.996254    1.104427   -1.389048
     23          6           0       -2.284479    2.493346   -0.692454
     24          1           0       -1.864337    3.224401   -1.085546
     25          6           0       -3.400948    2.685567    0.070452
     26          1           0       -3.733415    3.543471    0.211484
     27          6           0       -4.037243    1.583188    0.635274
     28          6           0       -3.552400    0.304386    0.427983
     29          6           0       -2.860904   -2.188271   -1.280458
     30          1           0       -2.477982   -3.057422   -1.409678
     31          1           0       -3.088075   -1.807713   -2.132670
     32          1           0       -3.653399   -2.263687   -0.743655
     33          1           0       -4.795650    1.707554    1.157780
     34          1           0       -3.992011   -0.426324    0.797506
     35          1           0       -2.084917   -2.043102    1.244748
 ---------------------------------------------------------------------

 SCF Done:  E(RPBE1PBE) =  -913.796033993     A.U. after   18 cycles

 The electronic state is 1-A.
 Alpha  occ. eigenvalues --  -19.07135 -19.06803 -18.98039 -14.45809 -14.23600
 Alpha  occ. eigenvalues --  -10.14021 -10.13962 -10.13286 -10.12843 -10.12814
 Alpha  occ. eigenvalues --  -10.12683 -10.12342 -10.12169 -10.11478 -10.10387
 Alpha  occ. eigenvalues --  -10.08723 -10.08685 -10.08505 -10.08475 -10.06098
 Alpha  occ. eigenvalues --   -1.08491  -0.90286  -0.82634  -0.81345  -0.78707
 Alpha  occ. eigenvalues --   -0.73865  -0.70732  -0.68885  -0.67005  -0.65197
 Alpha  occ. eigenvalues --   -0.64121  -0.58139  -0.56806  -0.55445  -0.52603
 Alpha  occ. eigenvalues --   -0.51795  -0.49304  -0.47131  -0.44258  -0.41950
 Alpha  occ. eigenvalues --   -0.41214  -0.39456  -0.39336  -0.38657  -0.37684
 Alpha  occ. eigenvalues --   -0.36739  -0.36393  -0.36132  -0.35181  -0.34329
 Alpha  occ. eigenvalues --   -0.32454  -0.31479  -0.30851  -0.29814  -0.29308
 Alpha  occ. eigenvalues --   -0.28390  -0.27434  -0.26437  -0.25613  -0.24424
 Alpha  occ. eigenvalues --   -0.23043  -0.21757  -0.17905  -0.17800  -0.17034
 Alpha  occ. eigenvalues --   -0.16686  -0.16526  -0.14455  -0.12838  -0.11642
 Alpha  occ. eigenvalues --   -0.06378  -0.05059
 Alpha virt. eigenvalues --    0.08379   0.08618   0.09027   0.13926   0.17569
 Alpha virt. eigenvalues --    0.19183   0.19567   0.20998   0.22036   0.23211
 Alpha virt. eigenvalues --    0.23822   0.24529   0.24850   0.25695   0.26651

 Mulliken charges:
               1
     1  O   -0.349180
     2  O   -0.338352
     3  N    0.219865
     4  C    0.136858
     5  C    0.063640
     6  H   -0.151844
     7  C   -0.302784
     8  C    0.397194
     9  H   -0.041922
    10  H   -0.068624
    11  O   -0.412380
    12  C    0.199048
    13  C    0.010450
    14  H   -0.146984
    15  C    0.084365
    16  H   -0.139025
    17  N   -0.213203
    18  C    0.101764
    19  H   -0.025173
    20  C   -0.096292
    21  C    0.101872
    22  H   -0.103840
    23  C    0.104177
    24  H   -0.101090
    25  C    0.086564
    26  H   -0.110459
    27  C    0.092665
    28  C    0.084606
    29  C    0.236600
    30  H   -0.012026
    31  H   -0.035954
    32  H   -0.055423
    33  H   -0.113891
    34  H   -0.128596
    35  H    0.027372
 Sum of Mulliken charges =  -1.00000

 Dipole moment (field-independent basis, Debye):
    X=             -9.9121    Y=              2.1760    Z=             -0.2025  Tot=             10.1501
 Quadrupole moment (field-independent basis, Debye-Ang):
   XX=           -155.9550   YY=           -157.8651   ZZ=           -115.1856
   XY=             -9.5034   XZ=             -3.5437   YZ=              0.5633

  Exact polarizability:     198.239      20.783     226.260     -26.264       3.165     111.078
 Approx polarizability:     297.056      68.015     444.999     -58.338      -1.205     178.803

 Summary of Natural Population Analysis:

                                       Natural Population
                Natural  -----------------------------------------------
    Atom  No    Charge         Core      Valence    Rydberg      Total
 -----------------------------------------------------------------------
      O    1   -0.48532      1.99977     6.47156    0.01399     8.48532
      O    2   -0.47508      1.99976     6.46075    0.01457     8.47508
      N    3    0.49554      1.99926     4.45172    0.05348     6.50446
      C    4    0.00320      1.99886     3.97579    0.02216     5.99680
      C    5   -0.18097      1.99892     4.16402    0.01803     6.18097
      H    6    0.18618      0.00000     0.80909    0.00472     0.81382
      C    7   -0.14200      1.99895     4.12371    0.01934     6.14200
      C    8   -0.16077      1.99897     4.14203    0.01977     6.16077
      H    9    0.18634      0.00000     0.80934    0.00432     0.81366
      H   10    0.15809      0.00000     0.83722    0.00470     0.84191
      O   11   -0.70595      1.99979     6.69811    0.00804     8.70595
      C   12    0.39690      1.99886     3.56394    0.04030     5.60310
      C   13   -0.25715      1.99900     4.23844    0.01971     6.25715
      H   14    0.16726      0.00000     0.82788    0.00486     0.83274
      C   15   -0.17307      1.99904     4.15739    0.01665     6.17307
      H   16    0.17970      0.00000     0.81599    0.00431     0.82030
      N   17   -0.63152      1.99935     5.61226    0.01990     7.63152
      C   18   -0.00139      1.99896     3.98129    0.02115     6.00139
      H   19    0.19391      0.00000     0.80105    0.00504     0.80609
      C   20   -0.03578      1.99899     4.01860    0.01818     6.03578
      C   21   -0.16495      1.99897     4.15026    0.01573     6.16495
      H   22    0.17912      0.00000     0.81769    0.00319     0.82088
      C   23   -0.15620      1.99910     4.14276    0.01434     6.15620
      H   24    0.16733      0.00000     0.82952    0.00315     0.83267
      C   25   -0.19344      1.99911     4.18015    0.01418     6.19344
      H   26    0.16296      0.00000     0.83389    0.00315     0.83704
      C   27   -0.16780      1.99911     4.15433    0.01436     6.16780
      C   28   -0.18980      1.99899     4.17466    0.01616     6.18980
      C   29   -0.53652      1.99914     4.52772    0.00966     6.53652
      H   30    0.19851      0.00000     0.79752    0.00396     0.80149
      H   31    0.18316      0.00000     0.81428    0.00255     0.81684
      H   32    0.17086      0.00000     0.82628    0.00287     0.82914
      H   33    0.15980      0.00000     0.83703    0.00317     0.84020
      H   34    0.16420      0.00000     0.83156    0.00425     0.83580
      H   35    0.30465      0.00000     0.68871    0.00664     0.69535
 =======================================================================
   * Total *   -1.00000     39.98288   103.56655    0.45057   144.00000

 ******   26 imaginary frequencies (negative Signs) ******

                      1                      2                      3
                      A                      A                      A
 Frequencies --  -1668.7255             -1472.9093             -1428.4588
 Red. masses --      1.0831                 1.0842                 1.0679
 Frc consts  --      1.7770                 1.3858                 1.2839
 IR Inten    --    142.7272                78.5690                30.8702

                      4                      5                      6
                      A                      A                      A
 Frequencies --  -1389.6424             -1380.4738             -1326.4248
 Red. masses --      1.0095                 1.0484                 1.0386
 Frc consts  --      1.1486                 1.1771                 1.0767
 IR Inten    --      0.2163                 1.3199                 3.1220

                      7                      8                      9
                      A                      A                      A
 Frequencies --  -1314.2054             -1260.9462             -1229.5434
 Red. masses --      1.0464                 1.0216                 1.0358
 Frc consts  --      1.0648                 0.9570                 0.9226
 IR Inten    --     10.1627                 0.0594                 0.3678

                     10                     11                     12
                      A                      A                      A
 Frequencies --  -1180.5391             -1079.9163             -1029.6006
 Red. masses --      1.0381                 1.0306                 1.0605
 Frc consts  --      0.8524                 0.7081                 0.6624
 IR Inten    --      0.4834                 6.7132                 8.8030

                     13                     14                     15
                      A                      A                      A
 Frequencies --  -1011.2600              -975.0102              -971.6108
 Red. masses --      1.0533                 1.0862                 1.0953
 Frc consts  --      0.6347                 0.6084                 0.6092
 IR Inten    --      1.5275                 4.8649                11.0387

                     16                     17                     18
                      A                      A                      A
 Frequencies --   -954.4185              -913.3347              -899.3290
 Red. masses --      1.0710                 1.1363                 1.0728
 Frc consts  --      0.5748                 0.5585                 0.5112
 IR Inten    --      1.3931                 0.7601                 3.1544

                     19                     20                     21
                      A                      A                      A
 Frequencies --   -858.7247              -847.7067              -755.7494
 Red. masses --      1.1013                 1.0590                 1.1006
 Frc consts  --      0.4785                 0.4484                 0.3704
 IR Inten    --      6.0892                 7.7658                 5.7100

                     22                     23                     24
                      A                      A                      A
 Frequencies --   -727.1134              -452.8095              -316.0110
 Red. masses --      1.0458                 1.5224                 1.9921
 Frc consts  --      0.3258                 0.1839                 0.1172
 IR Inten    --     13.4115                 5.3965                 0.8017

                     25                     26                     27
                      A                      A                      A
 Frequencies --   -243.5286               -83.0352                88.8040
 Red. masses --      2.3387                 4.9839                12.6039
 Frc consts  --      0.0817                 0.0202                 0.0586
 IR Inten    --      1.8391                 4.0721                 0.7359

                     28                     29                     30
                      A                      A                      A
 Frequencies --    117.6997               138.6002               160.0523
 Red. masses --     10.5765                10.2295                 6.9490
 Frc consts  --      0.0863                 0.1158                 0.1049
 IR Inten    --      2.2693                 5.2069                 3.3839

                     31                     32                     33
                      A                      A                      A
 Frequencies --    195.1789               259.0998               265.3540
 Red. masses --      8.7306                 7.4050                 8.7999
 Frc consts  --      0.1960                 0.2929                 0.3651
 IR Inten    --      0.1838                 4.5174                 0.3594

                     34                     35                     36
                      A                      A                      A
 Frequencies --    309.1231               337.7830               368.0510
 Red. masses --      6.0953                 1.1939                 6.7440
 Frc consts  --      0.3432                 0.0803                 0.5383
 IR Inten    --      2.4204                19.1007                 2.4754

                     37                     38                     39
                      A                      A                      A
 Frequencies --    400.8237               410.7541               439.8363
 Red. masses --      6.2705                 6.2249                 4.2326
 Frc consts  --      0.5936                 0.6188                 0.4824
 IR Inten    --      3.1762                 2.3869                 1.4706

                     40                     41                     42
                      A                      A                      A
 Frequencies --    463.1203               488.0039               540.3783
 Red. masses --      6.3471                 3.2478                10.3747
 Frc consts  --      0.8021                 0.4557                 1.7849
 IR Inten    --     11.1953                 1.3712                 0.0261

                     43                     44                     45
                      A                      A                      A
 Frequencies --    553.3421               569.1017               628.4357
 Red. masses --      5.3784                 4.4013                 6.6652
 Frc consts  --      0.9703                 0.8399                 1.5509
 IR Inten    --      0.3156                 6.2772                 1.3464

                     46                     47                     48
                      A                      A                      A
 Frequencies --    633.4176               661.3145               678.7144
 Red. masses --      9.8953                 5.8553                 5.9808
 Frc consts  --      2.3392                 1.5087                 1.6232
 IR Inten    --      5.1381                13.0572                 9.7625

                     49                     50                     51
                      A                      A                      A
 Frequencies --    705.3859               722.2236               746.5365
 Red. masses --      3.3086                 3.4209                 3.7852
 Frc consts  --      0.9699                 1.0513                 1.2429
 IR Inten    --     26.5565                33.5695                 8.8076

                     52                     53                     54
                      A                      A                      A
 Frequencies --    774.9291               777.4159               801.4916
 Red. masses --      2.7981                 4.6081                10.3493
 Frc consts  --      0.9900                 1.6409                 3.9171
 IR Inten    --      4.4376                 3.7335                 6.9296

                     55                     56                     57
                      A                      A                      A
 Frequencies --    805.7254               822.2440               843.3808
 Red. masses --      3.7606                 2.6162                 7.7238
 Frc consts  --      1.4384                 1.0421                 3.2369
 IR Inten    --      4.8762                13.7613                22.8302

                     58                     59                     60
                      A                      A                      A
 Frequencies --    846.3989               869.8682               890.6031
 Red. masses --      3.8164                 7.6272                 5.7324
 Frc consts  --      1.6109                 3.4003                 2.6789
 IR Inten    --      2.3246                 1.0398                 0.4451

                     61                     62                     63
                      A                      A                      A
 Frequencies --    902.1225               955.6063               982.8566
 Red. masses --      2.1101                 1.5670                 1.3847
 Frc consts  --      1.0118                 0.8431                 0.7881
 IR Inten    --     22.1355                10.8580                 9.7147

                     64                     65                     66
                      A                      A                      A
 Frequencies --   1022.2112              1035.2122              1052.9141
 Red. masses --      2.2128                 2.0126                 4.3287
 Frc consts  --      1.3623                 1.2708                 2.8274
 IR Inten    --      6.7456                 6.3971                 1.7213

                     67                     68                     69
                      A                      A                      A
 Frequencies --   1079.8721              1124.0638              1147.4841
 Red. masses --      4.5000                 2.8942                 4.7015
 Frc consts  --      3.0918                 2.1545                 3.6474
 IR Inten    --      3.9350                30.4037                17.6468

                     70                     71                     72
                      A                      A                      A
 Frequencies --   1223.2435              1255.8281              1321.3648
 Red. masses --      7.0486                 8.3441                 9.4017
 Frc consts  --      6.2141                 7.7534                 9.6717
 IR Inten    --      3.1598                22.9859                91.7246

                     73                     74                     75
                      A                      A                      A
 Frequencies --   1383.1776              1400.7345              1418.8063
 Red. masses --      8.2528                14.3886                 9.0483
 Frc consts  --      9.3027                16.6334                10.7316
 IR Inten    --      0.0984              1399.1464                 1.2829

                     76                     77                     78
                      A                      A                      A
 Frequencies --   1453.5455              1457.3762              1480.6416
 Red. masses --      8.2446                10.2076                11.1242
 Frc consts  --     10.2630                12.7737                14.3687
 IR Inten    --      0.4065                10.6117                86.6718

                     79                     80                     81
                      A                      A                      A
 Frequencies --   1512.0461              1615.7119              1627.3635
 Red. masses --      9.4544                12.5437                10.9696
 Frc consts  --     12.7355                19.2931                17.1163
 IR Inten    --     21.0162                78.0776               181.9623

                     82                     83                     84
                      A                      A                      A
 Frequencies --   1651.6374              1683.1767              1686.4580
 Red. masses --     10.4621                11.6063                 9.7890
 Frc consts  --     16.8151                19.3733                16.4036
 IR Inten    --     10.8079               168.9448                 0.5372

                     85                     86                     87
                      A                      A                      A
 Frequencies --   4371.1169              4413.1431              4471.9606
 Red. masses --      1.0880                 1.0598                 1.0323
 Frc consts  --     12.2482                12.1606                12.1638
 IR Inten    --      3.5706                23.3707                12.2375

                     88                     89                     90
                      A                      A                      A
 Frequencies --   4531.9058              4670.9573              4692.4404
 Red. masses --      1.1083                 1.1065                 1.1067
 Frc consts  --     13.4117                14.2233                14.3577
 IR Inten    --      7.0194                 6.0783                 1.9084

                     91                     92                     93
                      A                      A                      A
 Frequencies --   5016.4718              5020.7657              5028.1507
 Red. masses --      1.0870                 1.0883                 1.0889
 Frc consts  --     16.1163                16.1638                16.2204
 IR Inten    --      0.2013                 1.0876                 0.9561

                     94                     95                     96
                      A                      A                      A
 Frequencies --   5030.9710              5034.5451              5046.1491
 Red. masses --      1.0895                 1.0883                 1.0912
 Frc consts  --     16.2467                16.2527                16.3708
 IR Inten    --      1.1783                 1.8139                 3.3001

                     97                     98                     99
                      A                      A                      A
 Frequencies --   5046.2777              5050.8899              5578.2014
 Red. masses --      1.0899                 1.0903                 1.0755
 Frc consts  --     16.3527                16.3887                19.7169
 IR Inten    --      0.8594                 0.2777                 3.4272

 - Thermochemistry -
 -------------------
 Temperature   298.150 Kelvin.  Pressure   1.00000 Atm.
 Atom     1 has atomic number  8 and mass  15.99491

 Molecular mass:   271.10827 amu.
 Principal axes and moments of inertia in atomic units:
                           1         2         3
     Eigenvalues --  3729.956697374.03811**********
           X            0.99997  -0.00783  -0.00142
           Y            0.00784   0.99994   0.00761
           Z            0.00136  -0.00763   0.99997
 This molecule is an asymmetric top.
 Rotational symmetry number  1.
 Warning -- assumption of classical behavior for rotation
           may cause significant error
 Rotational temperatures (Kelvin)      0.02322     0.01175     0.00850
 Rotational constants (GHZ):           0.48385     0.24474     0.17701
   26 imaginary frequencies ignored.
 Zero-point vibrational energy     734450.8 (Joules/Mol)
                                  175.53796 (Kcal/Mol)
 Warning -- explicit consideration of  18 degrees of freedom as
           vibrations may cause significant error
 Vibrational temperatures:    127.77   169.34   199.41   230.28   280.82
          (Kelvin)            372.79   381.79   444.76   485.99   529.54
                              576.70   590.98   632.83   666.33   702.13
                              777.48   796.14   818.81   904.18   911.35
                              951.48   976.52  1014.89  1039.12  1074.10
                             1114.95  1118.53  1153.17  1159.26  1183.03
                             1213.44  1217.78  1251.55  1281.38  1297.95
                             1374.90  1414.11  1470.73  1489.44  1514.91
                             1553.70  1617.28  1650.97  1759.97  1806.86
                             1901.15  1990.08  2015.34  2041.35  2091.33
                             2096.84  2130.31  2175.50  2324.65  2341.41
                             2376.34  2421.72  2426.44  6289.06  6349.53
                             6434.15  6520.40  6720.47  6751.38  7217.58
                             7223.76  7234.39  7238.45  7243.59  7260.28
                             7260.47  7267.10  8025.79

 Zero-point correction=                           0.279738 (Hartree/Particle)
 Thermal correction to Energy=                    0.291772
 Thermal correction to Enthalpy=                  0.292716
 Thermal correction to Gibbs Free Energy=         0.241011
 Sum of electronic and zero-point Energies=           -913.516296
 Sum of electronic and thermal Energies=              -913.504262
 Sum of electronic and thermal Enthalpies=            -913.503318
 Sum of electronic and thermal Free Energies=         -913.555023

                     E (Thermal)             CV                S
                      KCal/Mol        Cal/Mol-Kelvin    Cal/Mol-Kelvin
 Total                  183.090             50.141            108.822
 Electronic               0.000              0.000              0.000
 Translational            0.889              2.981             42.691
 Rotational               0.889              2.981             33.994
 Vibrational            181.312             44.179             32.137
 Vibration     1          0.602              1.957              3.686
 Vibration     2          0.608              1.935              3.138
 Vibration     3          0.614              1.915              2.823
 Vibration     4          0.622              1.891              2.549
 Vibration     5          0.636              1.847              2.178
 Vibration     6          0.668              1.747              1.668
 Vibration     7          0.671              1.737              1.626
 Vibration     8          0.698              1.656              1.367
 Vibration     9          0.718              1.600              1.223
 Vibration    10          0.741              1.538              1.088
 Vibration    11          0.767              1.468              0.960
 Vibration    12          0.775              1.447              0.924
 Vibration    13          0.800              1.383              0.827
 Vibration    14          0.821              1.332              0.757
 Vibration    15          0.844              1.277              0.689
 Vibration    16          0.895              1.161              0.564
 Vibration    17          0.909              1.132              0.537
 Vibration    18          0.925              1.098              0.506

 Normal termination of Gaussian 16 at Mon Mar  6 11:25:04 2023.
