 Gaussian 16, Revision C.01,
 Gaussian 16:  ES64L-G16RevC.01  3-Jul-2019

 ----------------------------------------------------------------------
 #p pop=(regular,nbo,savenbos) freq=noraman def2svp empiricaldispersion
 =gd3bj output=wfx pbe1pbe
 ----------------------------------------------------------------------

 ----------------------------------------
 CAXMIY_Complex_1_Ligand_0_ON_Cu_oriented
 ----------------------------------------
 Symbolic Z-matrix:
 Charge = -1 Multiplicity = 1

                         Standard orientation:
 ---------------------------------------------------------------------
 Center     Atomic      Atomic             Coordinates (Angstroms)
 Number     Number       Type             X           Y           Z
 ---------------------------------------------------------------------
      1          8           0       -0.042189   -0.289189   -1.500171
      2          7           0        2.614136   -0.784028   -0.483339
      3          1           0        2.751810   -1.497244    0.064556
      4          6           0        2.040932    0.308624    0.344079
      5          1           0        1.932045    1.099920   -0.222996
      6          6           0        0.683505   -0.107201    0.839861
      7          1           0        0.748267   -1.008351    1.193847
      8          1           0        0.430663    0.476957    1.572839
      9          6           0       -0.435659   -0.076693   -0.218667
     10          6           0       -1.160101    1.281014   -0.190246
     11          6           0       -1.459993   -1.181070    0.171673
     12          6           0        3.905541   -0.433028   -1.080669
     13          1           0        4.250131   -1.187475   -1.564827
     14          9           0       -0.319159    2.252934   -0.447949
     15          9           0       -1.715532    1.553709    0.995257
     16          9           0       -2.126342    1.377849   -1.082574
     17          9           0       -0.891539   -2.367333    0.031369
     18          9           0       -1.861717   -1.104197    1.425801
     19          9           0       -2.530153   -1.188821   -0.603220
     20          6           0        2.954782    0.677872    1.512091
     21          1           0        2.652900    1.498407    1.908910
     22          1           0        2.932436   -0.021613    2.169639
     23          1           0        3.853673    0.788204    1.193345
     24          1           0        4.522126   -0.187914   -0.386245
     25          1           0        3.790462    0.306442   -1.681212
 ---------------------------------------------------------------------

 SCF Done:  E(RPBE1PBE) =  -999.908007751     A.U. after   14 cycles

 The electronic state is 1-A.
 Alpha  occ. eigenvalues --  -24.64215 -24.63910 -24.63669 -24.63207 -24.62977
 Alpha  occ. eigenvalues --  -24.62920 -18.88469 -14.20904 -10.28140 -10.28097
 Alpha  occ. eigenvalues --  -10.09728 -10.09594 -10.08321 -10.05896 -10.04150
 Alpha  occ. eigenvalues --   -1.17874  -1.17331  -1.07961  -1.07763  -1.07047
 Alpha  occ. eigenvalues --   -1.06825  -0.79337  -0.74655  -0.67142  -0.61008
 Alpha  occ. eigenvalues --   -0.58981  -0.56253  -0.54983  -0.50113  -0.47774
 Alpha  occ. eigenvalues --   -0.45360  -0.44876  -0.44721  -0.44477  -0.42482
 Alpha  occ. eigenvalues --   -0.37132  -0.36517  -0.35090  -0.33613  -0.33318
 Alpha  occ. eigenvalues --   -0.32272  -0.32173  -0.31972  -0.30852  -0.30562
 Alpha  occ. eigenvalues --   -0.28887  -0.28797  -0.28292  -0.27824  -0.27388
 Alpha  occ. eigenvalues --   -0.26310  -0.26029  -0.25361  -0.23639  -0.22177
 Alpha  occ. eigenvalues --   -0.20611  -0.19642  -0.14378  -0.08410  -0.00133
 Alpha  occ. eigenvalues --    0.00722
 Alpha virt. eigenvalues --    0.19434   0.22732   0.24063   0.25978   0.27969
 Alpha virt. eigenvalues --    0.28659   0.29612   0.30681   0.31621   0.32664
 Alpha virt. eigenvalues --    0.33662   0.35034   0.36788   0.37485   0.38792

 Mulliken charges:
               1
     1  O   -0.608943
     2  N   -0.258649
     3  H    0.041221
     4  C   -0.001254
     5  H   -0.055179
     6  C    0.221631
     7  H   -0.078556
     8  H   -0.072177
     9  C   -0.191489
    10  C    0.510110
    11  C    0.504521
    12  C    0.283817
    13  H   -0.049352
    14  F   -0.183539
    15  F   -0.221150
    16  F   -0.184875
    17  F   -0.195163
    18  F   -0.203631
    19  F   -0.191147
    20  C    0.211677
    21  H   -0.044414
    22  H   -0.055647
    23  H   -0.063177
    24  H   -0.080245
    25  H   -0.034392
 Sum of Mulliken charges =  -1.00000

 Dipole moment (field-independent basis, Debye):
    X=              2.9086    Y=              0.7740    Z=              4.4768  Tot=              5.3945
 Quadrupole moment (field-independent basis, Debye-Ang):
   XX=            -94.5942   YY=            -92.3516   ZZ=            -97.5452
   XY=             -0.7332   XZ=              0.4531   YZ=             -2.4736

  Exact polarizability:      91.687       0.042      70.902      -0.520       3.237      77.792
 Approx polarizability:     107.814      -0.117      96.985      -2.096       4.333     113.781

 Summary of Natural Population Analysis:

                                       Natural Population
                Natural  -----------------------------------------------
    Atom  No    Charge         Core      Valence    Rydberg      Total
 -----------------------------------------------------------------------
      O    1   -0.92116      1.99983     6.91082    0.01051     8.92116
      N    2   -0.63792      1.99939     5.61940    0.01913     7.63792
      H    3    0.30544      0.00000     0.68633    0.00823     0.69456
      C    4    0.03444      1.99906     3.94550    0.02100     5.96556
      H    5    0.17870      0.00000     0.81140    0.00990     0.82130
      C    6   -0.44048      1.99895     4.41373    0.02780     6.44048
      H    7    0.18716      0.00000     0.80673    0.00611     0.81284
      H    8    0.18287      0.00000     0.81162    0.00551     0.81713
      C    9    0.12267      1.99890     3.82724    0.05119     5.87733
      C   10    1.13739      1.99897     2.77708    0.08656     4.86261
      C   11    1.13888      1.99903     2.77572    0.08637     4.86112
      C   12   -0.31956      1.99914     4.31150    0.00892     6.31956
      H   13    0.16692      0.00000     0.83083    0.00225     0.83308
      F   14   -0.39327      1.99987     7.38761    0.00579     9.39327
      F   15   -0.41774      1.99989     7.41255    0.00531     9.41774
      F   16   -0.38558      1.99987     7.37971    0.00600     9.38558
      F   17   -0.39547      1.99988     7.38975    0.00585     9.39547
      F   18   -0.40783      1.99988     7.40230    0.00565     9.40783
      F   19   -0.38841      1.99988     7.38266    0.00587     9.38841
      C   20   -0.57500      1.99916     4.56603    0.00981     6.57500
      H   21    0.18206      0.00000     0.81417    0.00377     0.81794
      H   22    0.17104      0.00000     0.82460    0.00436     0.82896
      H   23    0.17367      0.00000     0.82360    0.00273     0.82633
      H   24    0.13190      0.00000     0.86320    0.00491     0.86810
      H   25    0.16928      0.00000     0.82726    0.00346     0.83072
 =======================================================================
   * Total *   -1.00000     29.99171    91.60131    0.40699   122.00000

 ******   15 imaginary frequencies (negative Signs) ******

                      1                      2                      3
                      A                      A                      A
 Frequencies --  -1400.8765             -1386.0523             -1255.2328
 Red. masses --      1.0121                 1.0104                 1.0918
 Frc consts  --      1.1703                 1.1436                 1.0135
 IR Inten    --      0.3760                 0.1001                97.1843

                      4                      5                      6
                      A                      A                      A
 Frequencies --  -1120.9319             -1038.0202             -1016.2548
 Red. masses --      1.0307                 1.0556                 1.0540
 Frc consts  --      0.7630                 0.6701                 0.6413
 IR Inten    --      3.5728                 1.4747                 8.1049

                      7                      8                      9
                      A                      A                      A
 Frequencies --   -952.0175              -897.2429              -432.1544
 Red. masses --      1.0776                 1.0649                 1.3969
 Frc consts  --      0.5754                 0.5051                 0.1537
 IR Inten    --      7.5433                 6.6525                 4.9593

                     10                     11                     12
                      A                      A                      A
 Frequencies --   -366.5093              -331.9435              -267.6554
 Red. masses --      1.7841                 1.7449                 1.3737
 Frc consts  --      0.1412                 0.1133                 0.0580
 IR Inten    --      8.7750                 0.1862                 3.1319

                     13                     14                     15
                      A                      A                      A
 Frequencies --   -181.7390               -99.7287               -40.4151
 Red. masses --      3.3040                18.5774                13.4216
 Frc consts  --      0.0643                 0.1089                 0.0129
 IR Inten    --      0.8432                 0.0405                 0.0382

                     16                     17                     18
                      A                      A                      A
 Frequencies --    132.5196               171.2763               230.4297
 Red. masses --     11.1790                 7.6589                 2.1757
 Frc consts  --      0.1157                 0.1324                 0.0681
 IR Inten    --      0.2441                 0.8791                11.7696

                     19                     20                     21
                      A                      A                      A
 Frequencies --    247.4316               264.7585               292.0452
 Red. masses --      1.9578                10.3162                11.8306
 Frc consts  --      0.0706                 0.4261                 0.5945
 IR Inten    --     22.4637                 8.7458                 0.8403

                     22                     23                     24
                      A                      A                      A
 Frequencies --    323.4150               341.1073               362.6107
 Red. masses --     14.8824                10.3744                13.9765
 Frc consts  --      0.9172                 0.7112                 1.0828
 IR Inten    --      3.9065                 0.8541                 3.0087

                     25                     26                     27
                      A                      A                      A
 Frequencies --    389.6721               422.9658               490.0831
 Red. masses --      4.2173                 4.3021                 4.7682
 Frc consts  --      0.3773                 0.4535                 0.6747
 IR Inten    --      2.5595                10.8871                 5.4421

                     28                     29                     30
                      A                      A                      A
 Frequencies --    507.7391               527.1177               546.0699
 Red. masses --      1.3776                 4.4119                14.9095
 Frc consts  --      0.2092                 0.7222                 2.6194
 IR Inten    --      1.7493                 2.1970                 5.0319

                     31                     32                     33
                      A                      A                      A
 Frequencies --    563.1423               584.2250               618.8772
 Red. masses --     12.2292                14.8643                 7.9396
 Frc consts  --      2.2850                 2.9892                 1.7917
 IR Inten    --      8.5475                 0.3262                 1.2524

                     34                     35                     36
                      A                      A                      A
 Frequencies --    710.6832               724.1966               740.9501
 Red. masses --      4.0844                 4.1030                 5.0505
 Frc consts  --      1.2154                 1.2678                 1.6337
 IR Inten    --      4.6242                13.8605                30.9241

                     37                     38                     39
                      A                      A                      A
 Frequencies --    763.7600               778.6573               824.9335
 Red. masses --     11.3069                 2.8695                 3.8946
 Frc consts  --      3.8860                 1.0251                 1.5615
 IR Inten    --     34.2075                12.0609                 7.9672

                     40                     41                     42
                      A                      A                      A
 Frequencies --    850.1228               896.9462               942.0559
 Red. masses --      1.9545                 1.7071                 1.2659
 Frc consts  --      0.8322                 0.8092                 0.6619
 IR Inten    --      0.2651                 5.3389                29.4804

                     43                     44                     45
                      A                      A                      A
 Frequencies --    966.3201               975.4679              1021.3626
 Red. masses --      1.1534                 1.0998                 1.0841
 Frc consts  --      0.6346                 0.6166                 0.6663
 IR Inten    --      2.9706                 1.2373                16.4961

                     46                     47                     48
                      A                      A                      A
 Frequencies --   1049.5321              1060.1046              1110.2217
 Red. masses --      1.7097                 3.1210                 4.1573
 Frc consts  --      1.1096                 2.0665                 3.0191
 IR Inten    --     34.7265               126.1535                72.8759

                     49                     50                     51
                      A                      A                      A
 Frequencies --   1123.3714              1149.8065              1170.7981
 Red. masses --      4.6832                 4.1959                 5.9458
 Frc consts  --      3.4821                 3.2683                 4.8020
 IR Inten    --     42.8857                10.9813                52.3805

                     52                     53                     54
                      A                      A                      A
 Frequencies --   1186.9647              1230.5938              1270.4183
 Red. masses --      3.5634                11.2391                 7.4345
 Frc consts  --      2.9579                10.0279                 7.0697
 IR Inten    --     33.9281                93.7674                33.9204

                     55                     56                     57
                      A                      A                      A
 Frequencies --   1286.3367              1313.6384              1337.2401
 Red. masses --     10.0976                11.9756                12.4847
 Frc consts  --      9.8441                12.1758                13.1537
 IR Inten    --    120.0877               359.7236               135.9088

                     58                     59                     60
                      A                      A                      A
 Frequencies --   1364.0340              1385.0700              4378.9958
 Red. masses --     12.6572                11.6689                 1.0877
 Frc consts  --     13.8752                13.1894                12.2890
 IR Inten    --    424.9241               154.4058                 3.9021

                     61                     62                     63
                      A                      A                      A
 Frequencies --   4406.3057              4453.0563              4461.7564
 Red. masses --      1.0603                 1.0311                 1.0316
 Frc consts  --     12.1294                12.0468                12.1001
 IR Inten    --     17.1932                43.2803                27.8594

                     64                     65                     66
                      A                      A                      A
 Frequencies --   4527.3817              4644.8468              4667.2907
 Red. masses --      1.1069                 1.1065                 1.1064
 Frc consts  --     13.3673                14.0652                14.2000
 IR Inten    --     10.7304                24.5259                12.9501

                     67                     68                     69
                      A                      A                      A
 Frequencies --   4668.9418              4676.5960              5007.1412
 Red. masses --      1.1065                 1.1075                 1.0751
 Frc consts  --     14.2109                14.2715                15.8813
 IR Inten    --     10.5913                 7.8647                 0.1093

 - Thermochemistry -
 -------------------
 Temperature   298.150 Kelvin.  Pressure   1.00000 Atm.
 Atom     1 has atomic number  8 and mass  15.99491

 Molecular mass:   238.06666 amu.
 Principal axes and moments of inertia in atomic units:
                           1         2         3
     Eigenvalues --  2146.732894004.240564712.24615
           X            0.99998  -0.00256   0.00493
           Y            0.00240   0.99951   0.03136
           Z           -0.00501  -0.03134   0.99950
 This molecule is an asymmetric top.
 Rotational symmetry number  1.
 Warning -- assumption of classical behavior for rotation
           may cause significant error
 Rotational temperatures (Kelvin)      0.04035     0.02163     0.01838
 Rotational constants (GHZ):           0.84069     0.45071     0.38299
   15 imaginary frequencies ignored.
 Zero-point vibrational energy     479351.9 (Joules/Mol)
                                  114.56786 (Kcal/Mol)
 Warning -- explicit consideration of  18 degrees of freedom as
           vibrations may cause significant error
 Vibrational temperatures:    190.67   246.43   331.54   356.00   380.93
          (Kelvin)            420.19   465.32   490.78   521.72   560.65
                              608.55   705.12   730.52   758.40   785.67
                              810.24   840.57   890.43  1022.51  1041.96
                             1066.06  1098.88  1120.31  1186.90  1223.14
                             1290.51  1355.41  1390.32  1403.48  1469.51
                             1510.04  1525.25  1597.36  1616.28  1654.32
                             1684.52  1707.78  1770.55  1827.85  1850.75
                             1890.03  1923.99  1962.54  1992.81  6300.40
                             6339.69  6406.95  6419.47  6513.89  6682.90
                             6715.19  6717.57  6728.58  7204.16

 Zero-point correction=                           0.182576 (Hartree/Particle)
 Thermal correction to Energy=                    0.192731
 Thermal correction to Enthalpy=                  0.193676
 Thermal correction to Gibbs Free Energy=         0.146826
 Sum of electronic and zero-point Energies=           -999.725432
 Sum of electronic and thermal Energies=              -999.715276
 Sum of electronic and thermal Enthalpies=            -999.714332
 Sum of electronic and thermal Free Energies=         -999.761181

                     E (Thermal)             CV                S
                      KCal/Mol        Cal/Mol-Kelvin    Cal/Mol-Kelvin
 Total                  120.941             42.353             98.602
 Electronic               0.000              0.000              0.000
 Translational            0.889              2.981             42.303
 Rotational               0.889              2.981             32.071
 Vibrational            119.163             36.391             24.228
 Vibration     1          0.613              1.921              2.909
 Vibration     2          0.626              1.878              2.421
 Vibration     3          0.652              1.795              1.876
 Vibration     4          0.661              1.767              1.749
 Vibration     5          0.671              1.738              1.630
 Vibration     6          0.687              1.689              1.462
 Vibration     7          0.708              1.629              1.293
 Vibration     8          0.721              1.593              1.207
 Vibration     9          0.736              1.549              1.111
 Vibration    10          0.758              1.492              1.001
 Vibration    11          0.785              1.420              0.882
 Vibration    12          0.846              1.272              0.683
 Vibration    13          0.863              1.233              0.639
 Vibration    14          0.882              1.190              0.594
 Vibration    15          0.901              1.148              0.552
 Vibration    16          0.919              1.111              0.518
 Vibration    17          0.941              1.065              0.478
 Vibration    18          0.979              0.992              0.418

 Normal termination of Gaussian 16 at Mon Mar  6 10:44:05 2023.
