 Gaussian 16, Revision C.01,
 Gaussian 16:  ES64L-G16RevC.01  3-Jul-2019

 ----------------------------------------------------------------------
 #p pop=(regular,nbo,savenbos) freq=noraman def2svp empiricaldispersion
 =gd3bj output=wfx pbe1pbe
 ----------------------------------------------------------------------

 ----------------------------------------
 CHXCUC_Complex_4_Ligand_1_NN_Cu_oriented
 ----------------------------------------
 Symbolic Z-matrix:
 Charge =  0 Multiplicity = 1

                         Standard orientation:
 ---------------------------------------------------------------------
 Center     Atomic      Atomic             Coordinates (Angstroms)
 Number     Number       Type             X           Y           Z
 ---------------------------------------------------------------------
      1          7           0       -0.560764   -1.247315   -1.486234
      2          7           0       -0.560764   -1.247315    1.486234
      3          6           0       -0.560764    0.229414   -1.252122
      4          6           0       -0.560764    0.229414    1.252122
      5          6           0        0.888701    0.742122   -1.233242
      6          6           0        0.888701    0.742122    1.233242
      7          6           0        1.609970    0.301038   -0.000000
      8          1           0       -1.343852   -1.438278    2.099456
      9          1           0        0.282948   -1.457591    2.016384
     10          1           0       -0.528189    0.221321    2.258048
     11          1           0        0.917215    1.735043   -1.314048
     12          1           0        0.917215    1.735043    1.314048
     13          1           0        1.390545    0.371696    2.069248
     14          1           0        2.549492    0.650454   -0.000000
     15          1           0        1.667233   -0.711909    0.000000
     16          6           0       -1.292418    0.581022   -0.000000
     17          1           0       -2.186947    0.128600    0.000000
     18          1           0       -1.456972    1.580103   -0.000000
     19          1           0       -0.528189    0.221321   -2.258048
     20          1           0       -1.343852   -1.438278   -2.099456
     21          1           0        1.390545    0.371696   -2.069248
     22          1           0        0.282948   -1.457591   -2.016384
 ---------------------------------------------------------------------

 SCF Done:  E(RPBE1PBE) =  -345.711330589     A.U. after   12 cycles

 The electronic state is 1-A'.
 Alpha  occ. eigenvalues --  -14.34124 -14.34118 -10.22933 -10.22926 -10.21080
 Alpha  occ. eigenvalues --  -10.20045 -10.20043 -10.18625  -0.91829  -0.89319
 Alpha  occ. eigenvalues --   -0.81583  -0.76069  -0.73550  -0.64579  -0.60520
 Alpha  occ. eigenvalues --   -0.56019  -0.51879  -0.49413  -0.48909  -0.46918
 Alpha  occ. eigenvalues --   -0.45100  -0.43663  -0.42921  -0.40580  -0.37477
 Alpha  occ. eigenvalues --   -0.35586  -0.35365  -0.34134  -0.31833  -0.28279
 Alpha  occ. eigenvalues --   -0.21727  -0.18577
 Alpha virt. eigenvalues --    0.05666   0.08496   0.10294   0.11090   0.11806
 Alpha virt. eigenvalues --    0.13050   0.13560   0.15064   0.15244   0.18136
 Alpha virt. eigenvalues --    0.18169   0.18693   0.19240   0.21393   0.21894

 Mulliken charges:
               1
     1  N   -0.218295
     2  N   -0.218295
     3  C   -0.121976
     4  C   -0.121976
     5  C   -0.008290
     6  C   -0.008290
     7  C    0.113523
     8  H    0.091855
     9  H    0.078094
    10  H   -0.033490
    11  H   -0.014575
    12  H   -0.014575
    13  H   -0.010612
    14  H   -0.021237
    15  H   -0.018862
    16  C    0.431348
    17  H   -0.021654
    18  H   -0.008542
    19  H   -0.033490
    20  H    0.091855
    21  H   -0.010612
    22  H    0.078094
 Sum of Mulliken charges =  -0.00000

 Dipole moment (field-independent basis, Debye):
    X=              0.3578    Y=              1.0738    Z=              0.0000  Tot=              1.1318
 Quadrupole moment (field-independent basis, Debye-Ang):
   XX=            -49.2621   YY=            -54.2226   ZZ=            -42.5836
   XY=             -0.2380   XZ=             -0.0000   YZ=              0.0000

  Exact polarizability:      71.052       4.276      66.855       0.000       0.000      75.526
 Approx polarizability:      96.072       3.427      94.979       0.000       0.000      96.002

 Summary of Natural Population Analysis:

                                       Natural Population
                Natural  -----------------------------------------------
    Atom  No    Charge         Core      Valence    Rydberg      Total
 -----------------------------------------------------------------------
      N    1   -0.86984      1.99954     5.85323    0.01707     7.86984
      N    2   -0.86984      1.99954     5.85323    0.01707     7.86984
      C    3   -0.08508      1.99901     4.06737    0.01870     6.08508
      C    4   -0.08508      1.99901     4.06737    0.01870     6.08508
      C    5   -0.39313      1.99913     4.37983    0.01417     6.39313
      C    6   -0.39313      1.99913     4.37983    0.01417     6.39313
      C    7   -0.40441      1.99913     4.38982    0.01546     6.40441
      H    8    0.34460      0.00000     0.65013    0.00527     0.65540
      H    9    0.34414      0.00000     0.65043    0.00543     0.65586
      H   10    0.26289      0.00000     0.72970    0.00742     0.73711
      H   11    0.19567      0.00000     0.80049    0.00384     0.80433
      H   12    0.19567      0.00000     0.80049    0.00384     0.80433
      H   13    0.20017      0.00000     0.79578    0.00406     0.79983
      H   14    0.19488      0.00000     0.80118    0.00394     0.80512
      H   15    0.20462      0.00000     0.79082    0.00456     0.79538
      C   16   -0.43085      1.99899     4.41243    0.01943     6.43085
      H   17    0.21907      0.00000     0.77694    0.00399     0.78093
      H   18    0.21786      0.00000     0.77877    0.00336     0.78214
      H   19    0.26289      0.00000     0.72970    0.00742     0.73711
      H   20    0.34460      0.00000     0.65013    0.00527     0.65540
      H   21    0.20017      0.00000     0.79578    0.00406     0.79983
      H   22    0.34414      0.00000     0.65043    0.00543     0.65586
 =======================================================================
   * Total *    0.00000     15.99347    47.80386    0.20267    64.00000

 ******   10 imaginary frequencies (negative Signs) ******

                      1                      2                      3
                     A'                     A'                     A'
 Frequencies --   -788.8524              -720.4642              -681.1724
 Red. masses --      1.0698                 1.0949                 1.0870
 Frc consts  --      0.3922                 0.3348                 0.2972
 IR Inten    --      4.2637                 3.5319                 0.8011

                      4                      5                      6
                     A"                     A"                     A'
 Frequencies --   -663.1592              -461.7450              -439.9592
 Red. masses --      1.0985                 1.5296                 1.4014
 Frc consts  --      0.2846                 0.1921                 0.1598
 IR Inten    --      0.6067                 1.3030                69.6964

                      7                      8                      9
                     A"                     A'                     A"
 Frequencies --   -388.1579              -308.2631              -280.1633
 Red. masses --      2.1095                 1.6880                 1.2017
 Frc consts  --      0.1873                 0.0945                 0.0556
 IR Inten    --      0.4510                29.6724                 0.0273

                     10                     11                     12
                     A'                     A"                     A'
 Frequencies --   -175.6378               241.4681               326.4670
 Red. masses --      1.2054                 2.5684                 2.0671
 Frc consts  --      0.0219                 0.0882                 0.1298
 IR Inten    --     45.1425                 0.8733                 0.6784

                     13                     14                     15
                     A"                     A'                     A"
 Frequencies --    336.8732               412.8754               444.7714
 Red. masses --      1.3987                 2.8569                 2.2129
 Frc consts  --      0.0935                 0.2869                 0.2579
 IR Inten    --      0.1744                 5.0297                 0.8940

                     16                     17                     18
                     A'                     A"                     A"
 Frequencies --    572.8020               598.6363               679.2325
 Red. masses --      2.5715                 1.6344                 1.3643
 Frc consts  --      0.4971                 0.3451                 0.3708
 IR Inten    --      6.8265                 9.5911                 0.3048

                     19                     20                     21
                     A'                     A'                     A"
 Frequencies --    696.4119               781.4486               785.1474
 Red. masses --      2.0788                 2.8815                 1.2420
 Frc consts  --      0.5940                 1.0367                 0.4511
 IR Inten    --     22.7794                45.1273                 0.4877

                     22                     23                     24
                     A'                     A"                     A"
 Frequencies --    853.9492               857.5447               888.8223
 Red. masses --      2.2612                 1.1875                 1.3509
 Frc consts  --      0.9715                 0.5145                 0.6288
 IR Inten    --      5.7628                 1.0463                 8.9446

                     25                     26                     27
                     A'                     A"                     A'
 Frequencies --    903.0276               935.1332               962.3871
 Red. masses --      1.7251                 1.2242                 2.3856
 Frc consts  --      0.8288                 0.6307                 1.3018
 IR Inten    --    105.5327                 1.5095                18.9578

                     28                     29                     30
                     A"                     A'                     A'
 Frequencies --    971.0374              1021.8048              1052.1117
 Red. masses --      1.5452                 1.6258                 2.3126
 Frc consts  --      0.8584                 1.0001                 1.5083
 IR Inten    --      0.0770                 1.0319                 9.4475

                     31                     32                     33
                     A"                     A"                     A'
 Frequencies --   1087.4813              1117.0718              1147.0278
 Red. masses --      1.2812                 1.7174                 2.8317
 Frc consts  --      0.8927                 1.2627                 2.1951
 IR Inten    --      1.3094                 5.1692                 6.0366

                     34                     35                     36
                     A'                     A"                     A'
 Frequencies --   1193.2921              1213.2554              1222.7619
 Red. masses --      1.1553                 2.2008                 1.8932
 Frc consts  --      0.9692                 1.9087                 1.6678
 IR Inten    --     31.1833                 0.0130                24.4806

                     37                     38                     39
                     A'                     A"                     A"
 Frequencies --   1230.6186              1247.0079              1269.3024
 Red. masses --      1.0981                 1.4140                 2.1380
 Frc consts  --      0.9798                 1.2955                 2.0295
 IR Inten    --      8.9243                 4.2868                 4.2023

                     40                     41                     42
                     A'                     A'                     A"
 Frequencies --   1272.7458              1315.8343              1326.9759
 Red. masses --      1.1433                 1.9846                 2.6135
 Frc consts  --      1.0911                 2.0245                 2.7115
 IR Inten    --     22.6080                34.4922                 0.0732

                     43                     44                     45
                     A'                     A"                     A"
 Frequencies --   1350.0412              1350.2825              1602.3470
 Red. masses --      2.1072                 2.3802                 1.0879
 Frc consts  --      2.2629                 2.5569                 1.6458
 IR Inten    --      5.9419                 0.0490                47.1629

                     46                     47                     48
                     A'                     A'                     A"
 Frequencies --   1604.1870              3534.1140              3534.2714
 Red. masses --      1.0863                 1.0517                 1.0518
 Frc consts  --      1.6471                 7.7394                 7.7404
 IR Inten    --     26.7455                 1.3671                 0.8738

                     49                     50                     51
                     A"                     A'                     A"
 Frequencies --   3639.1882              3639.9323              3646.5600
 Red. masses --      1.0792                 1.0798                 1.0917
 Frc consts  --      8.4208                 8.4291                 8.5527
 IR Inten    --     57.1508                10.2926                 1.1256

                     52                     53                     54
                     A'                     A'                     A'
 Frequencies --   3646.7589              3944.8737              3963.7476
 Red. masses --      1.0914                 1.0706                 1.0686
 Frc consts  --      8.5516                 9.8158                 9.8917
 IR Inten    --      1.0542                13.0759                17.0854

                     55                     56                     57
                     A"                     A'                     A'
 Frequencies --   4027.2813              4028.2078              4102.5984
 Red. masses --      1.0896                 1.0919                 1.0972
 Frc consts  --     10.4118                10.4393                10.8811
 IR Inten    --      4.4620                 6.7721                23.9428

                     58                     59                     60
                     A'                     A"                     A'
 Frequencies --   4117.9646              4170.5465              4171.4677
 Red. masses --      1.0984                 1.0882                 1.0880
 Frc consts  --     10.9745                11.1521                11.1547
 IR Inten    --      9.2333                 0.7971                28.3851

 - Thermochemistry -
 -------------------
 Temperature   298.150 Kelvin.  Pressure   1.00000 Atm.
 Atom     1 has atomic number  7 and mass  14.00307

 Molecular mass:   114.11570 amu.
 Principal axes and moments of inertia in atomic units:
                           1         2         3
     Eigenvalues --   693.66847 839.626941107.19454
           X            0.00000   0.84129  -0.54059
           Y            0.00000   0.54059   0.84129
           Z            1.00000   0.00000  -0.00000
 This molecule is an asymmetric top.
 Rotational symmetry number  1.
 Warning -- assumption of classical behavior for rotation
           may cause significant error
 Rotational temperatures (Kelvin)      0.12486     0.10316     0.07823
 Rotational constants (GHZ):           2.60173     2.14946     1.63001
   10 imaginary frequencies ignored.
 Zero-point vibrational energy     532575.7 (Joules/Mol)
                                  127.28864 (Kcal/Mol)
 Warning -- explicit consideration of   7 degrees of freedom as
           vibrations may cause significant error
 Vibrational temperatures:    347.42   469.71   484.69   594.04   639.93
          (Kelvin)            824.13   861.30   977.26  1001.98  1124.33
                             1129.65  1228.64  1233.82  1278.82  1299.26
                             1345.45  1384.66  1397.11  1470.15  1513.75
                             1564.64  1607.22  1650.32  1716.88  1745.60
                             1759.28  1770.59  1794.17  1826.24  1831.20
                             1893.19  1909.22  1942.41  1942.76  2305.42
                             2308.07  5084.80  5085.03  5235.98  5237.05
                             5246.59  5246.87  5675.79  5702.95  5794.36
                             5795.69  5902.72  5924.83  6000.49  6001.81

 Zero-point correction=                           0.202847 (Hartree/Particle)
 Thermal correction to Energy=                    0.208896
 Thermal correction to Enthalpy=                  0.209840
 Thermal correction to Gibbs Free Energy=         0.172885
 Sum of electronic and zero-point Energies=           -345.508483
 Sum of electronic and thermal Energies=              -345.502434
 Sum of electronic and thermal Enthalpies=            -345.501490
 Sum of electronic and thermal Free Energies=         -345.538446

                     E (Thermal)             CV                S
                      KCal/Mol        Cal/Mol-Kelvin    Cal/Mol-Kelvin
 Total                  131.084             25.777             77.779
 Electronic               0.000              0.000              0.000
 Translational            0.889              2.981             40.112
 Rotational               0.889              2.981             27.958
 Vibrational            129.307             19.816              9.710
 Vibration     1          0.658              1.777              1.792
 Vibration     2          0.710              1.623              1.278
 Vibration     3          0.718              1.602              1.227
 Vibration     4          0.777              1.442              0.917
 Vibration     5          0.804              1.372              0.812
 Vibration     6          0.929              1.090              0.499
 Vibration     7          0.957              1.035              0.452

 Normal termination of Gaussian 16 at Sat Mar  4 11:26:22 2023.
