 Gaussian 16, Revision C.01,
 Gaussian 16:  ES64L-G16RevC.01  3-Jul-2019

 ----------------------------------------------------------------------
 #p pop=(regular,nbo,savenbos) freq=noraman def2svp empiricaldispersion
 =gd3bj output=wfx pbe1pbe
 ----------------------------------------------------------------------

 ----------------------------------------
 CIYMAZ_Complex_4_Ligand_0_PN_Cu_oriented
 ----------------------------------------
 Symbolic Z-matrix:
 Charge =  0 Multiplicity = 1

                         Standard orientation:
 ---------------------------------------------------------------------
 Center     Atomic      Atomic             Coordinates (Angstroms)
 Number     Number       Type             X           Y           Z
 ---------------------------------------------------------------------
      1         15           0        0.131051    0.570425   -0.864229
      2          7           0        3.013928    0.133924   -1.532553
      3          6           0        1.247937   -0.646830   -0.142791
      4          6           0        0.550928   -1.713969    0.317134
      5          6           0        1.146150   -3.010231    0.807280
      6          1           0        1.943690   -3.208158    0.294779
      7          1           0        1.406063   -2.908817    1.736650
      8          6           0        0.171192   -4.172067    0.684962
      9          1           0        0.552574   -4.962826    1.094719
     10          1           0        0.008840   -4.364599   -0.252274
     11          6           0       -1.123719   -3.822234    1.362245
     12          1           0       -1.704753   -4.599084    1.363000
     13          1           0       -0.946047   -3.581205    2.284822
     14          6           0       -1.832609   -2.673363    0.677767
     15          1           0       -2.489647   -2.304047    1.287801
     16          6           0       -0.903735   -1.553070    0.221568
     17          6           0       -1.319301   -0.383248   -0.339868
     18          6           0        2.671147   -0.508255   -0.378386
     19          6           0        3.666351   -0.992730    0.481651
     20          1           0        3.436768   -1.403975    1.282915
     21          6           0        4.999123   -0.848829    0.118188
     22          1           0        5.669039   -1.167872    0.677027
     23          6           0        5.320293   -0.242115   -1.050667
     24          1           0        6.209776   -0.157912   -1.308072
     25          6           0        4.311550    0.248581   -1.851011
     26          1           0        4.539420    0.674784   -2.644353
     27          6           0        0.234241    2.023041    0.241238
     28          6           0        1.057656    3.042043   -0.113340
     29          1           0        1.505493    3.002313   -0.927214
     30          6           0        1.247827    4.155614    0.717148
     31          1           0        1.820436    4.842537    0.462908
     32          6           0        0.580083    4.213798    1.903740
     33          1           0        0.687593    4.952581    2.457984
     34          6           0       -0.250456    3.187220    2.286511
     35          6           0       -0.422823    2.092615    1.453211
     36          1           0       -0.987252    1.400516    1.713987
     37         16           0       -4.114356   -0.707000   -0.223097
     38          6           0       -2.658695    0.102648   -0.618562
     39          6           0       -2.973732    1.345836   -1.296681
     40          1           0       -2.351346    1.967695   -1.600182
     41          6           0       -4.416277    1.466388   -1.425989
     42          1           0       -4.826488    2.177481   -1.860274
     43          6           0       -5.084669    0.487898   -0.880821
     44          1           0       -6.014861    0.456625   -0.857720
     45          1           0       -2.308274   -3.017187   -0.095030
     46          1           0       -0.695371    3.226855    3.102238
 ---------------------------------------------------------------------

 SCF Done:  E(RPBE1PBE) =  -1680.15042539     A.U. after   16 cycles

 The electronic state is 1-A.
 Alpha  occ. eigenvalues --  -89.02908 -77.18873 -14.38241 -10.27690 -10.27117
 Alpha  occ. eigenvalues --  -10.25073 -10.24512 -10.24347 -10.24136 -10.23612
 Alpha  occ. eigenvalues --  -10.23338 -10.23005 -10.22991 -10.22789 -10.22559
 Alpha  occ. eigenvalues --  -10.21979 -10.21608 -10.21539 -10.21500 -10.21446
 Alpha  occ. eigenvalues --  -10.21420 -10.21320 -10.20931 -10.20701 -10.20109
 Alpha  occ. eigenvalues --  -10.19993  -8.03112  -6.59998  -5.97243  -5.96841
 Alpha  occ. eigenvalues --   -5.96579  -4.74042  -4.73994  -4.73570  -0.95852
 Alpha  occ. eigenvalues --   -0.91226  -0.88931  -0.88281  -0.83801  -0.83003
 Alpha  occ. eigenvalues --   -0.81411  -0.78668  -0.78337  -0.77488  -0.76601
 Alpha  occ. eigenvalues --   -0.75480  -0.71882  -0.70840  -0.66962  -0.66148
 Alpha  occ. eigenvalues --   -0.64997  -0.64637  -0.63055  -0.61455  -0.59778
 Alpha  occ. eigenvalues --   -0.58858  -0.57081  -0.56285  -0.55207  -0.53645
 Alpha  occ. eigenvalues --   -0.52830  -0.50999  -0.50397  -0.49476  -0.48267
 Alpha  occ. eigenvalues --   -0.47539  -0.47207  -0.46672  -0.45107  -0.45039
 Alpha  occ. eigenvalues --   -0.43923  -0.43461  -0.43116  -0.42811  -0.41949
 Alpha  occ. eigenvalues --   -0.41671  -0.40478  -0.40085  -0.39547  -0.39425
 Alpha  occ. eigenvalues --   -0.38808  -0.37270  -0.36843  -0.36367  -0.36076
 Alpha  occ. eigenvalues --   -0.35334  -0.33697  -0.32723  -0.31850  -0.30430
 Alpha  occ. eigenvalues --   -0.29357  -0.27730  -0.26951  -0.26472  -0.26243
 Alpha  occ. eigenvalues --   -0.25404  -0.22157  -0.20223
 Alpha virt. eigenvalues --   -0.06139  -0.02347  -0.00916  -0.00518  -0.00147
 Alpha virt. eigenvalues --    0.02548   0.06153   0.06669   0.07467   0.08008
 Alpha virt. eigenvalues --    0.09898   0.10235   0.10709   0.11241   0.11503

 Mulliken charges:
               1
     1  P    0.391044
     2  N   -0.197700
     3  C   -0.182926
     4  C   -0.112090
     5  C    0.214774
     6  H   -0.016303
     7  H   -0.010122
     8  C    0.076481
     9  H   -0.032367
    10  H   -0.013960
    11  C    0.091669
    12  H   -0.030167
    13  H   -0.026239
    14  C    0.210021
    15  H   -0.008323
    16  C   -0.160659
    17  C   -0.205198
    18  C   -0.003247
    19  C    0.093770
    20  H   -0.115483
    21  C    0.163028
    22  H   -0.091108
    23  C    0.033628
    24  H   -0.088067
    25  C    0.207524
    26  H   -0.076369
    27  C   -0.137642
    28  C    0.117417
    29  H   -0.103299
    30  C    0.104365
    31  H   -0.095248
    32  C    0.104762
    33  H   -0.093640
    34  C    0.106981
    35  C    0.122611
    36  H   -0.096877
    37  S    0.088356
    38  C   -0.153402
    39  C    0.110953
    40  H   -0.086200
    41  C    0.100018
    42  H   -0.095834
    43  C    0.059446
    44  H   -0.059292
    45  H   -0.008310
    46  H   -0.096775
 Sum of Mulliken charges =  -0.00000

 Dipole moment (field-independent basis, Debye):
    X=              1.3124    Y=             -1.0416    Z=              2.2362  Tot=              2.7943
 Quadrupole moment (field-independent basis, Debye-Ang):
   XX=           -141.6802   YY=           -149.9320   ZZ=           -163.1969
   XY=             -1.2900   XZ=              0.4178   YZ=             -3.5051

  Exact polarizability:     383.523      -3.485     280.738      -3.074     -22.822     191.635
 Approx polarizability:     559.527      -0.562     439.206     -12.736     -72.610     348.244

 Summary of Natural Population Analysis:

                                       Natural Population
                Natural  -----------------------------------------------
    Atom  No    Charge         Core      Valence    Rydberg      Total
 -----------------------------------------------------------------------
      P    1    0.90686      9.99798     4.05265    0.04251    14.09314
      N    2   -0.49190      1.99932     5.47657    0.01600     7.49190
      C    3   -0.34185      1.99877     4.31538    0.02770     6.34185
      C    4   -0.00583      1.99877     3.98777    0.01929     6.00583
      C    5   -0.38670      1.99902     4.37411    0.01356     6.38670
      H    6    0.20640      0.00000     0.78987    0.00373     0.79360
      H    7    0.20033      0.00000     0.79591    0.00376     0.79967
      C    8   -0.34845      1.99911     4.33679    0.01255     6.34845
      H    9    0.19090      0.00000     0.80568    0.00342     0.80910
      H   10    0.18224      0.00000     0.81361    0.00415     0.81776
      C   11   -0.35149      1.99911     4.33960    0.01279     6.35149
      H   12    0.19302      0.00000     0.80351    0.00348     0.80698
      H   13    0.17889      0.00000     0.81694    0.00417     0.82111
      C   14   -0.39637      1.99902     4.38290    0.01446     6.39637
      H   15    0.20803      0.00000     0.78769    0.00428     0.79197
      C   16   -0.01424      1.99880     3.99617    0.01928     6.01424
      C   17   -0.35225      1.99879     4.32358    0.02988     6.35225
      C   18    0.20489      1.99895     3.76810    0.02805     5.79511
      C   19   -0.19357      1.99901     4.17988    0.01468     6.19357
      H   20    0.17596      0.00000     0.82088    0.00316     0.82404
      C   21   -0.12631      1.99910     4.11330    0.01391     6.12631
      H   22    0.17080      0.00000     0.82623    0.00298     0.82920
      C   23   -0.22028      1.99910     4.20786    0.01332     6.22028
      H   24    0.17348      0.00000     0.82327    0.00325     0.82652
      C   25    0.12547      1.99911     3.85487    0.02055     5.87453
      H   26    0.15014      0.00000     0.84703    0.00283     0.84986
      C   27   -0.32560      1.99892     4.29954    0.02714     6.32560
      C   28   -0.15284      1.99895     4.13689    0.01700     6.15284
      H   29    0.17898      0.00000     0.81748    0.00354     0.82102
      C   30   -0.15890      1.99910     4.14541    0.01439     6.15890
      H   31    0.17022      0.00000     0.82680    0.00298     0.82978
      C   32   -0.16526      1.99910     4.15209    0.01407     6.16526
      H   33    0.16851      0.00000     0.82831    0.00318     0.83149
      C   34   -0.16060      1.99910     4.14720    0.01430     6.16060
      C   35   -0.14475      1.99898     4.12884    0.01693     6.14475
      H   36    0.17651      0.00000     0.81980    0.00369     0.82349
      S   37    0.42854      9.99871     5.53127    0.04148    15.57146
      C   38   -0.24202      1.99906     4.21927    0.02368     6.24202
      C   39   -0.17530      1.99909     4.16138    0.01482     6.17530
      H   40    0.17906      0.00000     0.81831    0.00263     0.82094
      C   41   -0.19675      1.99903     4.18267    0.01505     6.19675
      H   42    0.17926      0.00000     0.81801    0.00273     0.82074
      C   43   -0.36117      1.99896     4.34254    0.01968     6.36117
      H   44    0.18839      0.00000     0.80917    0.00244     0.81161
      H   45    0.20537      0.00000     0.79018    0.00445     0.79463
      H   46    0.17016      0.00000     0.82681    0.00304     0.82984
 =======================================================================
   * Total *    0.00000     67.97296   127.44211    0.58493   196.00000

 ******   35 imaginary frequencies (negative Signs) ******

                      1                      2                      3
                      A                      A                      A
 Frequencies --  -1472.3399             -1463.6046             -1460.1003
 Red. masses --      1.0776                 1.0819                 1.0788
 Frc consts  --      1.3763                 1.3654                 1.3551
 IR Inten    --     74.2666                60.1813                42.8121

                      4                      5                      6
                      A                      A                      A
 Frequencies --  -1415.3577             -1365.8040             -1342.2126
 Red. masses --      1.0512                 1.0433                 1.0429
 Frc consts  --      1.2407                 1.1466                 1.1070
 IR Inten    --      5.3515                 0.1963                 0.2230

                      7                      8                      9
                      A                      A                      A
 Frequencies --  -1299.5692             -1298.5815             -1275.3906
 Red. masses --      1.0275                 1.0283                 1.0411
 Frc consts  --      1.0224                 1.0216                 0.9978
 IR Inten    --      0.2189                 0.5856                 0.2867

                     10                     11                     12
                      A                      A                      A
 Frequencies --  -1244.3661             -1197.9925             -1169.2640
 Red. masses --      1.0191                 1.0334                 1.0354
 Frc consts  --      0.9298                 0.8738                 0.8340
 IR Inten    --      0.1330                 0.6073                 0.1689

                     13                     14                     15
                      A                      A                      A
 Frequencies --  -1120.9103             -1110.1665             -1076.2821
 Red. masses --      1.0415                 1.0264                 1.0252
 Frc consts  --      0.7710                 0.7453                 0.6997
 IR Inten    --      6.6889                 3.6507                 2.5782

                     16                     17                     18
                      A                      A                      A
 Frequencies --  -1051.5452             -1041.8265              -964.4658
 Red. masses --      1.0594                 1.0280                 1.0623
 Frc consts  --      0.6902                 0.6574                 0.5822
 IR Inten    --      4.8241                 4.3331                11.5822

                     19                     20                     21
                      A                      A                      A
 Frequencies --   -945.6150              -937.7494              -898.4761
 Red. masses --      1.0848                 1.0729                 1.1537
 Frc consts  --      0.5715                 0.5559                 0.5487
 IR Inten    --      0.5182                 0.5778                 0.9311

                     22                     23                     24
                      A                      A                      A
 Frequencies --   -897.5116              -881.4233              -801.5797
 Red. masses --      1.0473                 1.1386                 1.0992
 Frc consts  --      0.4971                 0.5212                 0.4161
 IR Inten    --     15.8925                 5.1377                11.1271

                     25                     26                     27
                      A                      A                      A
 Frequencies --   -773.3641              -752.3974              -708.6156
 Red. masses --      1.0879                 1.1081                 1.0964
 Frc consts  --      0.3834                 0.3696                 0.3244
 IR Inten    --      7.9471                 8.1962                 9.6538

                     28                     29                     30
                      A                      A                      A
 Frequencies --   -685.6909              -578.6375              -538.6655
 Red. masses --      1.0429                 1.2273                 1.2611
 Frc consts  --      0.2889                 0.2421                 0.2156
 IR Inten    --     19.5886                 0.1927                 0.1704

                     31                     32                     33
                      A                      A                      A
 Frequencies --   -518.0989              -504.2745              -424.7393
 Red. masses --      1.2389                 1.7241                 1.4145
 Frc consts  --      0.1959                 0.2583                 0.1503
 IR Inten    --      0.3388                 0.3966                 2.3801

                     34                     35                     36
                      A                      A                      A
 Frequencies --   -290.5240              -192.0889                39.3951
 Red. masses --      1.4697                 2.1189                 5.3468
 Frc consts  --      0.0731                 0.0461                 0.0049
 IR Inten    --      0.3239                 0.3473                 0.1840

                     37                     38                     39
                      A                      A                      A
 Frequencies --     63.9041                70.1339                76.6311
 Red. masses --      2.1755                 2.9317                 5.6891
 Frc consts  --      0.0052                 0.0085                 0.0197
 IR Inten    --      0.2697                 0.2877                 0.2898

                     40                     41                     42
                      A                      A                      A
 Frequencies --    121.9030               158.1522               170.4231
 Red. masses --      7.6614                 8.7460                 9.0664
 Frc consts  --      0.0671                 0.1289                 0.1551
 IR Inten    --      0.3382                 0.1718                 1.0452

                     43                     44                     45
                      A                      A                      A
 Frequencies --    184.5200               223.7291               227.7576
 Red. masses --      9.2805                 8.2963                 8.7081
 Frc consts  --      0.1862                 0.2447                 0.2661
 IR Inten    --      0.1947                 0.0163                 0.0916

                     46                     47                     48
                      A                      A                      A
 Frequencies --    247.6907               267.2314               307.5531
 Red. masses --      9.2447                 9.3835                 5.9749
 Frc consts  --      0.3342                 0.3948                 0.3330
 IR Inten    --      0.0747                 2.6929                 0.3264

                     49                     50                     51
                      A                      A                      A
 Frequencies --    357.5638               368.2823               417.9453
 Red. masses --      8.7900                 9.8157                 9.4245
 Frc consts  --      0.6621                 0.7844                 0.9699
 IR Inten    --      2.1660                 3.2577                 3.3962

                     52                     53                     54
                      A                      A                      A
 Frequencies --    441.3142               471.3918               497.2094
 Red. masses --      8.1659                 7.9307                 9.6141
 Frc consts  --      0.9370                 1.0383                 1.4004
 IR Inten    --      7.0424                 2.8372                20.4606

                     55                     56                     57
                      A                      A                      A
 Frequencies --    523.6157               543.5554               553.9702
 Red. masses --     10.6292                10.5965                 7.3791
 Frc consts  --      1.7170                 1.8446                 1.3342
 IR Inten    --      2.2079                 0.0391                 2.1554

                     58                     59                     60
                      A                      A                      A
 Frequencies --    564.6590               570.2421               594.0345
 Red. masses --     10.0457                 7.1362                 6.9167
 Frc consts  --      1.8871                 1.3672                 1.4380
 IR Inten    --      6.6106                 3.6654                 8.3322

                     61                     62                     63
                      A                      A                      A
 Frequencies --    644.0501               651.9130               666.4809
 Red. masses --      3.9710                 7.5803                 4.0493
 Frc consts  --      0.9705                 1.8981                 1.0598
 IR Inten    --      3.0811                 4.7113                 3.9398

                     64                     65                     66
                      A                      A                      A
 Frequencies --    683.3915               699.7958               719.9130
 Red. masses --      3.4841                 5.5342                 4.4448
 Frc consts  --      0.9587                 1.5968                 1.3572
 IR Inten    --      0.2866                 0.7444                 0.2307

                     67                     68                     69
                      A                      A                      A
 Frequencies --    741.4848               747.1394               763.0352
 Red. masses --      4.7577                 4.1818                 4.0457
 Frc consts  --      1.5412                 1.3754                 1.3878
 IR Inten    --      4.2690                 1.5392                 1.1988

                     70                     71                     72
                      A                      A                      A
 Frequencies --    778.1152               794.9346               796.4266
 Red. masses --      2.9390                 5.8601                 2.7323
 Frc consts  --      1.0484                 2.1818                 1.0211
 IR Inten    --      0.7195                 1.0798                 2.2305

                     73                     74                     75
                      A                      A                      A
 Frequencies --    820.3325               832.7210               838.2362
 Red. masses --      5.8080                 5.1632                 4.9739
 Frc consts  --      2.3028                 2.1094                 2.0591
 IR Inten    --      5.6380                 4.2092                 2.5103

                     76                     77                     78
                      A                      A                      A
 Frequencies --    852.4131               870.7326               874.5256
 Red. masses --      5.7778                 2.6507                 4.4630
 Frc consts  --      2.4735                 1.1841                 2.0110
 IR Inten    --      2.3535                 1.7452                 1.5818

                     79                     80                     81
                      A                      A                      A
 Frequencies --    881.0124               923.0057               928.9165
 Red. masses --      4.2488                 3.1378                 2.3445
 Frc consts  --      1.9430                 1.5750                 1.1919
 IR Inten    --      2.0811                 4.9191                 0.5344

                     82                     83                     84
                      A                      A                      A
 Frequencies --    948.0797               957.4293               987.8794
 Red. masses --      1.5148                 1.8307                 6.7371
 Frc consts  --      0.8022                 0.9887                 3.8738
 IR Inten    --      7.2933                 1.6127                26.0817

                     85                     86                     87
                      A                      A                      A
 Frequencies --    996.6339              1002.6754              1013.8376
 Red. masses --      2.4276                 1.3563                 1.6663
 Frc consts  --      1.4207                 0.8034                 1.0091
 IR Inten    --      3.8086                10.6947                 5.5029

                     88                     89                     90
                      A                      A                      A
 Frequencies --   1033.3583              1050.1924              1122.6358
 Red. masses --      7.5521                 6.6999                 3.0662
 Frc consts  --      4.7514                 4.3537                 2.2768
 IR Inten    --      1.5122                 4.7133                 0.8474

                     91                     92                     93
                      A                      A                      A
 Frequencies --   1129.6401              1132.7978              1176.3284
 Red. masses --      4.1400                 7.4435                 5.6400
 Frc consts  --      3.1126                 5.6277                 4.5981
 IR Inten    --      3.2127                 0.1434                 2.4335

                     94                     95                     96
                      A                      A                      A
 Frequencies --   1199.8981              1224.3985              1245.7548
 Red. masses --      7.6348                 8.1060                 6.1226
 Frc consts  --      6.4765                 7.1598                 5.5982
 IR Inten    --      1.7946                 5.4524                 2.1763

                     97                     98                     99
                      A                      A                      A
 Frequencies --   1279.2263              1330.0367              1335.5336
 Red. masses --      8.3237                 8.9962                 8.2110
 Frc consts  --      8.0253                 9.3764                 8.6289
 IR Inten    --      1.8344                 7.0477                 0.7105

                    100                    101                    102
                      A                      A                      A
 Frequencies --   1353.5283              1371.6253              1381.9968
 Red. masses --      8.6352                11.0090                 8.7214
 Frc consts  --      9.3209                12.2031                 9.8141
 IR Inten    --      7.6375                 9.6684                31.0141

                    103                    104                    105
                      A                      A                      A
 Frequencies --   1440.6877              1452.2865              1501.1509
 Red. masses --      8.9956                10.4672                 8.6407
 Frc consts  --     11.0007                13.0073                11.4723
 IR Inten    --      0.8762               107.2463                 1.1071

                    106                    107                    108
                      A                      A                      A
 Frequencies --   1616.2398              1624.3502              1648.5157
 Red. masses --     11.8881                10.8722                10.4835
 Frc consts  --     18.2968                16.9016                16.7859
 IR Inten    --     39.0466               167.6656                 2.4330

                    109                    110                    111
                      A                      A                      A
 Frequencies --   1690.1369              1711.9371              1743.2445
 Red. masses --      9.9227                11.8198                10.1490
 Frc consts  --     16.7003                20.4096                18.1714
 IR Inten    --     31.3085                22.6169                 1.6727

                    112                    113                    114
                      A                      A                      A
 Frequencies --   1767.6403              4415.9396              4420.4731
 Red. masses --      8.7092                 1.0599                 1.0608
 Frc consts  --     16.0330                12.1773                12.2135
 IR Inten    --      3.1285                13.8797                 9.6433

                    115                    116                    117
                      A                      A                      A
 Frequencies --   4424.1551              4426.4634              4534.2177
 Red. masses --      1.0602                 1.0616                 1.1088
 Frc consts  --     12.2264                12.2550                13.4311
 IR Inten    --     15.0167                 9.3009                 3.4670

                    118                    119                    120
                      A                      A                      A
 Frequencies --   4541.7989              4546.2962              4551.2414
 Red. masses --      1.1078                 1.1084                 1.1080
 Frc consts  --     13.4640                13.4973                13.5225
 IR Inten    --      4.1780                 4.5056                 5.2133

                    121                    122                    123
                      A                      A                      A
 Frequencies --   5025.1460              5030.5385              5030.6286
 Red. masses --      1.0870                 1.0880                 1.0885
 Frc consts  --     16.1732                16.2227                16.2301
 IR Inten    --      1.1241                 0.1977                19.2826

                    124                    125                    126
                      A                      A                      A
 Frequencies --   5033.3360              5034.3306              5040.9005
 Red. masses --      1.0878                 1.0892                 1.0907
 Frc consts  --     16.2370                16.2647                16.3295
 IR Inten    --      1.8545                 0.6936                 0.2021

                    127                    128                    129
                      A                      A                      A
 Frequencies --   5044.3406              5046.3076              5048.0793
 Red. masses --      1.0888                 1.0896                 1.0927
 Frc consts  --     16.3229                16.3480                16.4061
 IR Inten    --      0.3930                 4.7307                 0.8558

                    130                    131                    132
                      A                      A                      A
 Frequencies --   5053.6258              5056.6003              5061.7525
 Red. masses --      1.0903                 1.0922                 1.0935
 Frc consts  --     16.4055                16.4534                16.5069
 IR Inten    --      1.2023                 1.4040                 2.1069

 - Thermochemistry -
 -------------------
 Temperature   298.150 Kelvin.  Pressure   1.00000 Atm.
 Atom     1 has atomic number 15 and mass  30.97376

 Molecular mass:   373.10541 amu.
 Principal axes and moments of inertia in atomic units:
                           1         2         3
     Eigenvalues --  7532.87625********************
           X            1.00000  -0.00290  -0.00009
           Y            0.00290   0.99993  -0.01146
           Z            0.00013   0.01146   0.99993
 This molecule is an asymmetric top.
 Rotational symmetry number  1.
 Warning -- assumption of classical behavior for rotation
           may cause significant error
 Rotational temperatures (Kelvin)      0.01150     0.00738     0.00530
 Rotational constants (GHZ):           0.23958     0.15383     0.11041
   35 imaginary frequencies ignored.
 Zero-point vibrational energy     965429.6 (Joules/Mol)
                                  230.74322 (Kcal/Mol)
 Warning -- explicit consideration of  25 degrees of freedom as
           vibrations may cause significant error
 Vibrational temperatures:     56.68    91.94   100.91   110.26   175.39
          (Kelvin)            227.55   245.20   265.48   321.90   327.69
                              356.37   384.49   442.50   514.45   529.88
                              601.33   634.95   678.23   715.37   753.37
                              782.06   797.04   812.42   820.45   854.68
                              926.64   937.96   958.92   983.25  1006.85
                             1035.79  1066.83  1074.97  1097.84  1119.53
                             1143.73  1145.88  1180.28  1198.10  1206.03
                             1226.43  1252.79  1258.25  1267.58  1328.00
                             1336.50  1364.08  1377.53  1421.34  1433.93
                             1442.63  1458.69  1486.77  1510.99  1615.22
                             1625.30  1629.84  1692.47  1726.39  1761.64
                             1792.36  1840.52  1913.63  1921.53  1947.43
                             1973.46  1988.39  2072.83  2089.52  2159.82
                             2325.41  2337.08  2371.85  2431.73  2463.10
                             2508.14  2543.24  6353.55  6360.07  6365.37
                             6368.69  6523.73  6534.64  6541.11  6548.22
                             7230.06  7237.82  7237.95  7241.85  7243.28
                             7252.73  7257.68  7260.51  7263.06  7271.04
                             7275.32  7282.73

 Zero-point correction=                           0.367713 (Hartree/Particle)
 Thermal correction to Energy=                    0.383876
 Thermal correction to Enthalpy=                  0.384821
 Thermal correction to Gibbs Free Energy=         0.322771
 Sum of electronic and zero-point Energies=          -1679.782713
 Sum of electronic and thermal Energies=             -1679.766549
 Sum of electronic and thermal Enthalpies=           -1679.765605
 Sum of electronic and thermal Free Energies=        -1679.827654

                     E (Thermal)             CV                S
                      KCal/Mol        Cal/Mol-Kelvin    Cal/Mol-Kelvin
 Total                  240.886             65.652            130.594
 Electronic               0.000              0.000              0.000
 Translational            0.889              2.981             43.643
 Rotational               0.889              2.981             35.623
 Vibrational            239.109             59.690             51.329
 Vibration     1          0.594              1.981              5.289
 Vibration     2          0.597              1.972              4.333
 Vibration     3          0.598              1.968              4.150
 Vibration     4          0.599              1.965              3.975
 Vibration     5          0.609              1.931              3.070
 Vibration     6          0.621              1.893              2.572
 Vibration     7          0.626              1.879              2.431
 Vibration     8          0.631              1.861              2.282
 Vibration     9          0.649              1.805              1.929
 Vibration    10          0.651              1.799              1.897
 Vibration    11          0.661              1.767              1.747
 Vibration    12          0.672              1.733              1.614
 Vibration    13          0.697              1.659              1.375
 Vibration    14          0.733              1.560              1.133
 Vibration    15          0.741              1.537              1.087
 Vibration    16          0.781              1.431              0.899
 Vibration    17          0.801              1.380              0.822
 Vibration    18          0.828              1.314              0.734
 Vibration    19          0.853              1.256              0.665
 Vibration    20          0.879              1.198              0.602
 Vibration    21          0.899              1.154              0.558
 Vibration    22          0.909              1.131              0.536
 Vibration    23          0.920              1.108              0.515
 Vibration    24          0.926              1.096              0.504
 Vibration    25          0.952              1.044              0.460

 Normal termination of Gaussian 16 at Sat Mar  4 13:53:32 2023.
