 Gaussian 16, Revision C.01,
 Gaussian 16:  ES64L-G16RevC.01  3-Jul-2019

 ----------------------------------------------------------------------
 #p pop=(regular,nbo,savenbos) freq=noraman def2svp empiricaldispersion
 =gd3bj output=wfx pbe1pbe
 ----------------------------------------------------------------------

 ----------------------------------------
 COKWIJ_Complex_5_Ligand_1_ON_Cu_oriented
 ----------------------------------------
 Symbolic Z-matrix:
 Charge = -1 Multiplicity = 1

                         Standard orientation:
 ---------------------------------------------------------------------
 Center     Atomic      Atomic             Coordinates (Angstroms)
 Number     Number       Type             X           Y           Z
 ---------------------------------------------------------------------
      1          7           0        0.872460    1.593570   -0.834996
      2          1           0        0.757443    2.411973   -0.520935
      3          1           0        0.288296    1.494425   -1.510529
      4          6           0        0.665026    0.672585    0.304694
      5          1           0        0.904855    1.175854    1.110804
      6          6           0       -0.791374    0.217999    0.497106
      7          1           0       -0.816799   -0.369343    1.281039
      8          6           0       -1.286339   -0.594573   -0.703722
      9          1           0       -1.395559    0.002457   -1.460336
     10          1           0       -0.607317   -1.246791   -0.939512
     11          6           0       -2.596529   -1.318144   -0.463315
     12          1           0       -2.747404   -1.950515   -1.168245
     13          1           0       -3.314921   -0.681893   -0.443575
     14          1           0       -2.555630   -1.780925    0.376537
     15          6           0       -1.677601    1.416889    0.793898
     16          1           0       -2.593149    1.132197    0.850553
     17          1           0       -1.587103    2.063776    0.090026
     18          1           0       -1.413427    1.811846    1.627231
     19          6           0        1.658460   -0.489413    0.215975
     20          8           0        2.643033   -0.347198   -0.590043
     21          8           0        1.499922   -1.484065    0.925556
 ---------------------------------------------------------------------

 SCF Done:  E(RPBE1PBE) =  -440.097530476     A.U. after   14 cycles

 The electronic state is 1-A.
 Alpha  occ. eigenvalues --  -18.91838 -18.90022 -14.17923 -10.07912 -10.06630
 Alpha  occ. eigenvalues --  -10.06445 -10.06217 -10.05937 -10.05500  -0.81208
 Alpha  occ. eigenvalues --   -0.76421  -0.70560  -0.69733  -0.64784  -0.57407
 Alpha  occ. eigenvalues --   -0.53182  -0.45481  -0.38159  -0.37068  -0.36002
 Alpha  occ. eigenvalues --   -0.33925  -0.31037  -0.30046  -0.28566  -0.26923
 Alpha  occ. eigenvalues --   -0.26281  -0.22593  -0.21295  -0.20026  -0.19779
 Alpha  occ. eigenvalues --   -0.17057  -0.15509  -0.09063  -0.02513  -0.02266
 Alpha  occ. eigenvalues --    0.00293
 Alpha virt. eigenvalues --    0.19112   0.21708   0.23583   0.25048   0.27088
 Alpha virt. eigenvalues --    0.27384   0.28073   0.29756   0.30535   0.32599
 Alpha virt. eigenvalues --    0.32995   0.34283   0.36013   0.37001   0.39057

 Mulliken charges:
               1
     1  N   -0.053980
     2  H    0.010360
     3  H    0.010508
     4  C   -0.022689
     5  H   -0.057541
     6  C   -0.139339
     7  H   -0.047045
     8  C    0.052388
     9  H   -0.063948
    10  H   -0.011069
    11  C    0.171203
    12  H   -0.047307
    13  H   -0.048032
    14  H   -0.031236
    15  C    0.250355
    16  H   -0.067754
    17  H   -0.089605
    18  H   -0.055602
    19  C    0.122876
    20  O   -0.457125
    21  O   -0.425418
 Sum of Mulliken charges =  -1.00000

 Dipole moment (field-independent basis, Debye):
    X=             -9.6211    Y=              4.0885    Z=             -0.0744  Tot=             10.4541
 Quadrupole moment (field-independent basis, Debye-Ang):
   XX=            -85.7238   YY=            -63.4581   ZZ=            -59.8967
   XY=              6.9178   XZ=              3.7901   YZ=              4.1414

  Exact polarizability:      77.905       0.513      68.896      -4.038      -0.910      61.869
 Approx polarizability:      98.409       1.818      91.842     -10.401      -6.664      91.595

 Summary of Natural Population Analysis:

                                       Natural Population
                Natural  -----------------------------------------------
    Atom  No    Charge         Core      Valence    Rydberg      Total
 -----------------------------------------------------------------------
      N    1   -0.78705      1.99940     5.76312    0.02453     7.78705
      H    2    0.29918      0.00000     0.69472    0.00610     0.70082
      H    3    0.30864      0.00000     0.68557    0.00579     0.69136
      C    4   -0.11479      1.99888     4.08957    0.02634     6.11479
      H    5    0.17499      0.00000     0.82051    0.00449     0.82501
      C    6   -0.19935      1.99904     4.18272    0.01759     6.19935
      H    7    0.19264      0.00000     0.79730    0.01006     0.80736
      C    8   -0.35637      1.99905     4.34284    0.01447     6.35637
      H    9    0.16025      0.00000     0.83446    0.00529     0.83975
      H   10    0.20268      0.00000     0.79278    0.00453     0.79732
      C   11   -0.54298      1.99919     4.53590    0.00789     6.54298
      H   12    0.17664      0.00000     0.82058    0.00279     0.82336
      H   13    0.16682      0.00000     0.83022    0.00295     0.83318
      H   14    0.17887      0.00000     0.81777    0.00336     0.82113
      C   15   -0.56039      1.99917     4.54921    0.01201     6.56039
      H   16    0.17286      0.00000     0.82407    0.00308     0.82714
      H   17    0.16562      0.00000     0.82532    0.00906     0.83438
      H   18    0.17899      0.00000     0.81799    0.00302     0.82101
      C   19    0.77322      1.99943     3.15290    0.07445     5.22678
      O   20   -0.79150      1.99977     6.78343    0.00830     8.79150
      O   21   -0.79897      1.99973     6.78930    0.00993     8.79897
 =======================================================================
   * Total *   -1.00000     17.99367    53.75030    0.25603    72.00000

 ******   16 imaginary frequencies (negative Signs) ******

                      1                      2                      3
                      A                      A                      A
 Frequencies --  -1674.6982             -1451.2775             -1393.0109
 Red. masses --      1.0446                 1.1317                 1.0153
 Frc consts  --      1.7262                 1.4044                 1.1608
 IR Inten    --     54.4836               199.7612                 0.2452

                      4                      5                      6
                      A                      A                      A
 Frequencies --  -1381.5177             -1109.6880             -1096.6414
 Red. masses --      1.0155                 1.0383                 1.0599
 Frc consts  --      1.1420                 0.7533                 0.7510
 IR Inten    --      0.9331                 6.4139                 3.0851

                      7                      8                      9
                      A                      A                      A
 Frequencies --  -1026.3679             -1021.9792             -1000.9455
 Red. masses --      1.0682                 1.0913                 1.0602
 Frc consts  --      0.6630                 0.6715                 0.6259
 IR Inten    --      5.2966                 9.8105                 2.6372

                     10                     11                     12
                      A                      A                      A
 Frequencies --   -996.4740              -488.3468              -422.2665
 Red. masses --      1.0451                 1.3830                 1.3515
 Frc consts  --      0.6114                 0.1943                 0.1420
 IR Inten    --      1.2317                 1.5353                 0.8437

                     13                     14                     15
                      A                      A                      A
 Frequencies --   -356.0303              -310.9815              -247.0564
 Red. masses --      1.7460                 1.7404                 1.7366
 Frc consts  --      0.1304                 0.0992                 0.0625
 IR Inten    --      7.0232                 2.8668                 5.3355

                     16                     17                     18
                      A                      A                      A
 Frequencies --   -134.5609               230.7635               250.7608
 Red. masses --      5.9977                 1.7783                 2.0676
 Frc consts  --      0.0640                 0.0558                 0.0766
 IR Inten    --      1.2279                25.3048                 8.8203

                     19                     20                     21
                      A                      A                      A
 Frequencies --    313.4593               360.4414               448.6069
 Red. masses --      1.2120                 5.8714                 5.6666
 Frc consts  --      0.0702                 0.4494                 0.6719
 IR Inten    --     11.7513                 0.2667                 3.2411

                     22                     23                     24
                      A                      A                      A
 Frequencies --    467.4588               524.4156               622.2209
 Red. masses --      4.4719                 2.3079                 2.3081
 Frc consts  --      0.5757                 0.3740                 0.5265
 IR Inten    --      3.1398                 0.9515                 0.3313

                     25                     26                     27
                      A                      A                      A
 Frequencies --    673.5839               749.5075               772.1413
 Red. masses --      2.0990                 1.8867                 3.0570
 Frc consts  --      0.5611                 0.6244                 1.0738
 IR Inten    --     10.8861                11.5179                43.9586

                     28                     29                     30
                      A                      A                      A
 Frequencies --    801.9290               828.0031               859.6542
 Red. masses --      3.0529                 1.6811                 2.8279
 Frc consts  --      1.1567                 0.6791                 1.2313
 IR Inten    --     11.3205                 7.7253                13.1462

                     31                     32                     33
                      A                      A                      A
 Frequencies --    891.3730               906.1602               954.6718
 Red. masses --      1.8872                 1.9368                 1.2514
 Frc consts  --      0.8835                 0.9370                 0.6720
 IR Inten    --      4.0244                 6.5305                 2.3173

                     34                     35                     36
                      A                      A                      A
 Frequencies --    985.8142               996.1686              1019.4542
 Red. masses --      1.1515                 1.5418                 1.3032
 Frc consts  --      0.6593                 0.9014                 0.7980
 IR Inten    --      5.5578                 0.2578                 5.4958

                     37                     38                     39
                      A                      A                      A
 Frequencies --   1037.0364              1039.6751              1091.1257
 Red. masses --      1.2161                 2.1246                 2.5812
 Frc consts  --      0.7706                 1.3531                 1.8106
 IR Inten    --     10.1413                11.2789                 5.6464

                     40                     41                     42
                      A                      A                      A
 Frequencies --   1128.5454              1164.7072              1214.6271
 Red. masses --      3.3094                 4.9930                 5.8228
 Frc consts  --      2.4833                 3.9907                 5.0614
 IR Inten    --      0.6447                24.7992                 7.5496

                     43                     44                     45
                      A                      A                      A
 Frequencies --   1241.5348              1426.1927              1785.4771
 Red. masses --      5.1648                11.9673                12.8921
 Frc consts  --      4.6905                14.3417                24.2149
 IR Inten    --      4.0784               240.6483               393.3166

                     46                     47                     48
                      A                      A                      A
 Frequencies --   4354.7339              4369.1463              4417.8399
 Red. masses --      1.0868                 1.0869                 1.0605
 Frc consts  --     12.1428                12.2246                12.1954
 IR Inten    --     21.4304                 6.7336                17.3764

                     49                     50                     51
                      A                      A                      A
 Frequencies --   4461.2987              4470.1936              4536.9769
 Red. masses --      1.0317                 1.0320                 1.1080
 Frc consts  --     12.0989                12.1503                13.4375
 IR Inten    --     24.8675                22.2662                 7.6163

                     52                     53                     54
                      A                      A                      A
 Frequencies --   4661.2818              4673.4760              4674.6873
 Red. masses --      1.1060                 1.1065                 1.1066
 Frc consts  --     14.1588                14.2390                14.2473
 IR Inten    --     14.3447                 9.5586                12.9611

                     55                     56                     57
                      A                      A                      A
 Frequencies --   4680.1152              5187.4204              5444.1412
 Red. masses --      1.1066                 1.0618                 1.0829
 Frc consts  --     14.2809                16.8343                18.9098
 IR Inten    --      9.8954                 1.4698                 3.8435

 - Thermochemistry -
 -------------------
 Temperature   298.150 Kelvin.  Pressure   1.00000 Atm.
 Atom     1 has atomic number  7 and mass  14.00307

 Molecular mass:   130.08680 amu.
 Principal axes and moments of inertia in atomic units:
                           1         2         3
     Eigenvalues --   790.620021576.695631916.13670
           X            0.99946   0.03265   0.00387
           Y           -0.03280   0.99836   0.04690
           Z           -0.00234  -0.04700   0.99889
 This molecule is an asymmetric top.
 Rotational symmetry number  1.
 Warning -- assumption of classical behavior for rotation
           may cause significant error
 Rotational temperatures (Kelvin)      0.10955     0.05493     0.04520
 Rotational constants (GHZ):           2.28269     1.14464     0.94186
   16 imaginary frequencies ignored.
 Zero-point vibrational energy     482793.8 (Joules/Mol)
                                  115.39049 (Kcal/Mol)
 Warning -- explicit consideration of   7 degrees of freedom as
           vibrations may cause significant error
 Vibrational temperatures:    332.02   360.79   451.00   518.59   645.45
          (Kelvin)            672.57   754.52   895.24   969.14  1078.37
                             1110.94  1153.80  1191.31  1236.85  1282.49
                             1303.76  1373.56  1418.37  1433.26  1466.77
                             1492.06  1495.86  1569.89  1623.73  1675.75
                             1747.58  1786.29  2051.97  2568.90  6265.49
                             6286.23  6356.29  6418.81  6431.61  6527.70
                             6706.54  6724.09  6725.83  6733.64  7463.54
                             7832.90

 Zero-point correction=                           0.183886 (Hartree/Particle)
 Thermal correction to Energy=                    0.190289
 Thermal correction to Enthalpy=                  0.191233
 Thermal correction to Gibbs Free Energy=         0.152817
 Sum of electronic and zero-point Energies=           -439.913644
 Sum of electronic and thermal Energies=              -439.907241
 Sum of electronic and thermal Enthalpies=            -439.906297
 Sum of electronic and thermal Free Energies=         -439.944713

                     E (Thermal)             CV                S
                      KCal/Mol        Cal/Mol-Kelvin    Cal/Mol-Kelvin
 Total                  119.408             26.222             80.854
 Electronic               0.000              0.000              0.000
 Translational            0.889              2.981             40.502
 Rotational               0.889              2.981             29.259
 Vibrational            117.631             20.261             11.093
 Vibration     1          0.652              1.794              1.873
 Vibration     2          0.663              1.761              1.725
 Vibration     3          0.701              1.648              1.344
 Vibration     4          0.735              1.554              1.120
 Vibration     5          0.808              1.364              0.800
 Vibration     6          0.825              1.322              0.745
 Vibration     7          0.879              1.196              0.600

 Normal termination of Gaussian 16 at Mon Mar  6 10:33:32 2023.
