 Gaussian 16, Revision C.01,
 Gaussian 16:  ES64L-G16RevC.01  3-Jul-2019

 ----------------------------------------------------------------------
 #p pop=(regular,nbo,savenbos) freq=noraman def2svp empiricaldispersion
 =gd3bj output=wfx pbe1pbe
 ----------------------------------------------------------------------

 ----------------------------------------
 COTREJ_Complex_1_Ligand_0_SN_Cu_oriented
 ----------------------------------------
 Symbolic Z-matrix:
 Charge =  0 Multiplicity = 1

                         Standard orientation:
 ---------------------------------------------------------------------
 Center     Atomic      Atomic             Coordinates (Angstroms)
 Number     Number       Type             X           Y           Z
 ---------------------------------------------------------------------
      1          7           0        2.644517   -1.988002    0.089943
      2         16           0       -0.092551   -1.818740   -0.445275
      3          8           0        3.973752   -2.234851   -0.215387
      4          1           0        4.122379   -3.038548   -0.157309
      5          6           0        0.466106    0.890660   -0.204585
      6          1           0       -0.485137    1.115293   -0.143027
      7          6           0        0.842177   -0.459640    0.413585
      8          6           0        2.298447   -0.762404    0.031740
      9          6           0        2.342371    1.507549   -0.979799
     10          6           0        1.448306    2.083423    0.138394
     11          6           0        1.049467    0.942222   -1.641051
     12          1           0        0.599633    1.565200   -2.232495
     13          1           0        1.160650    0.074490   -2.058646
     14          6           0        0.807006    3.419798   -0.227022
     15          1           0        0.111885    3.624920    0.402371
     16          1           0        0.434090    3.364629   -1.109544
     17          6           0        0.605394   -0.544698    1.926500
     18          1           0        1.292712   -0.055921    2.386163
     19          1           0        0.627436   -1.464122    2.203067
     20          1           0       -0.251616   -0.167297    2.138164
     21          6           0       -1.663327   -2.032029    0.419171
     22          1           0       -2.047255   -2.883014    0.155599
     23          1           0       -1.486502   -2.074805    1.372496
     24          6           0       -2.675989   -0.959399    0.172303
     25          6           0       -3.115378   -0.704166   -1.113120
     26          1           0       -2.749937   -1.170060   -1.830659
     27          6           0       -4.093654    0.239097   -1.331392
     28          1           0       -4.384450    0.406657   -2.199228
     29          6           0       -4.229752    0.684676    0.976480
     30          6           0       -3.231995   -0.254127    1.216749
     31          1           0       -2.939736   -0.406834    2.086384
     32          6           0        3.180459    0.338435   -0.478385
     33          1           0        3.733476    0.003321   -1.200502
     34          1           0        3.765197    0.642534    0.234239
     35          6           0       -4.638746    0.928018   -0.301295
     36          1           0       -5.293454    1.568007   -0.465097
     37          6           0        2.061147    2.260879    1.520484
     38          1           0        2.703073    2.974527    1.496821
     39          1           0        2.829061    2.171710   -1.511427
     40          1           0        1.370219    2.471719    2.152871
     41          1           0        1.473440    4.110593   -0.203722
     42          1           0        2.498286    1.446810    1.783651
     43          1           0       -4.616504    1.145082    1.685190
 ---------------------------------------------------------------------

 SCF Done:  E(RPBE1PBE) =  -1187.63697607     A.U. after   14 cycles

 The electronic state is 1-A.
 Alpha  occ. eigenvalues --  -88.97907 -19.23017 -14.42867 -10.27819 -10.26947
 Alpha  occ. eigenvalues --  -10.23477 -10.23339 -10.23117 -10.22077 -10.21833
 Alpha  occ. eigenvalues --  -10.21404 -10.21349 -10.21079 -10.20988 -10.20905
 Alpha  occ. eigenvalues --  -10.20717 -10.19443 -10.19118 -10.17942 -10.17932
 Alpha  occ. eigenvalues --   -7.97901  -5.92187  -5.91764  -5.91079  -1.12095
 Alpha  occ. eigenvalues --   -0.92741  -0.88978  -0.88500  -0.83667  -0.80604
 Alpha  occ. eigenvalues --   -0.79342  -0.77651  -0.76399  -0.74896  -0.72918
 Alpha  occ. eigenvalues --   -0.70690  -0.66552  -0.64736  -0.64337  -0.63613
 Alpha  occ. eigenvalues --   -0.61447  -0.57502  -0.56026  -0.55137  -0.51164
 Alpha  occ. eigenvalues --   -0.50722  -0.50080  -0.49659  -0.49450  -0.48107
 Alpha  occ. eigenvalues --   -0.47245  -0.45943  -0.45671  -0.45165  -0.45099
 Alpha  occ. eigenvalues --   -0.44469  -0.43922  -0.43599  -0.42641  -0.41974
 Alpha  occ. eigenvalues --   -0.41451  -0.40058  -0.39226  -0.38983  -0.37791
 Alpha  occ. eigenvalues --   -0.36993  -0.36899  -0.36141  -0.33464  -0.32456
 Alpha  occ. eigenvalues --   -0.30916  -0.29867  -0.28818  -0.27229  -0.26455
 Alpha  occ. eigenvalues --   -0.26313  -0.25770  -0.21227
 Alpha virt. eigenvalues --   -0.00337   0.00254   0.00713   0.07339   0.07676
 Alpha virt. eigenvalues --    0.09241   0.10120   0.10205   0.10976   0.11615
 Alpha virt. eigenvalues --    0.12137   0.12855   0.13287   0.14243   0.14420

 Mulliken charges:
               1
     1  N   -0.038381
     2  S   -0.020825
     3  O   -0.130695
     4  H    0.093620
     5  C    0.042318
     6  H   -0.042067
     7  C   -0.388149
     8  C   -0.220600
     9  C   -0.159667
    10  C   -0.497191
    11  C    0.283386
    12  H   -0.026016
    13  H   -0.028477
    14  C    0.333109
    15  H   -0.027853
    16  H   -0.053933
    17  C    0.383730
    18  H   -0.047776
    19  H   -0.015126
    20  H   -0.031252
    21  C    0.139063
    22  H    0.032307
    23  H   -0.016658
    24  C   -0.088442
    25  C    0.112957
    26  H   -0.116862
    27  C    0.103304
    28  H   -0.096454
    29  C    0.106047
    30  C    0.070420
    31  H   -0.114163
    32  C    0.467578
    33  H   -0.016319
    34  H   -0.019879
    35  C    0.099887
    36  H   -0.098211
    37  C    0.310664
    38  H   -0.031500
    39  H   -0.058929
    40  H   -0.029403
    41  H   -0.031289
    42  H   -0.031456
    43  H   -0.100814
 Sum of Mulliken charges =  -0.00000

 Dipole moment (field-independent basis, Debye):
    X=             -0.0031    Y=              1.4593    Z=              1.0550  Tot=              1.8007
 Quadrupole moment (field-independent basis, Debye-Ang):
   XX=           -121.2495   YY=           -121.4152   ZZ=           -121.5650
   XY=             -1.8114   XZ=             -0.0203   YZ=             -1.1975

  Exact polarizability:     205.148     -20.581     176.171       0.795       2.362     154.852
 Approx polarizability:     270.222     -37.990     264.752      -0.021       9.133     256.868

 Summary of Natural Population Analysis:

                                       Natural Population
                Natural  -----------------------------------------------
    Atom  No    Charge         Core      Valence    Rydberg      Total
 -----------------------------------------------------------------------
      N    1   -0.16648      1.99902     5.14342    0.02404     7.16648
      S    2    0.15482      9.99921     5.81466    0.03132    15.84518
      O    3   -0.52248      1.99967     6.50472    0.01809     8.52248
      H    4    0.43380      0.00000     0.55990    0.00630     0.56620
      C    5   -0.20646      1.99893     4.18007    0.02745     6.20646
      H    6    0.20257      0.00000     0.79189    0.00555     0.79743
      C    7   -0.16161      1.99893     4.13679    0.02589     6.16161
      C    8    0.23903      1.99908     3.72202    0.03987     5.76097
      C    9   -0.18240      1.99900     4.16147    0.02193     6.18240
      C   10   -0.02438      1.99907     4.00559    0.01972     6.02438
      C   11   -0.35329      1.99916     4.33550    0.01863     6.35329
      H   12    0.19452      0.00000     0.80289    0.00259     0.80548
      H   13    0.19004      0.00000     0.80610    0.00387     0.80996
      C   14   -0.54486      1.99914     4.53201    0.01371     6.54486
      H   15    0.19070      0.00000     0.80648    0.00282     0.80930
      H   16    0.18744      0.00000     0.81022    0.00234     0.81256
      C   17   -0.53997      1.99910     4.52762    0.01324     6.53997
      H   18    0.19919      0.00000     0.79839    0.00241     0.80081
      H   19    0.20455      0.00000     0.79177    0.00368     0.79545
      H   20    0.19247      0.00000     0.80480    0.00273     0.80753
      C   21   -0.47687      1.99887     4.45835    0.01965     6.47687
      H   22    0.22384      0.00000     0.77332    0.00284     0.77616
      H   23    0.20123      0.00000     0.79503    0.00374     0.79877
      C   24   -0.03188      1.99901     4.01631    0.01657     6.03188
      C   25   -0.16584      1.99897     4.15087    0.01599     6.16584
      H   26    0.17581      0.00000     0.81995    0.00424     0.82419
      C   27   -0.15762      1.99909     4.14419    0.01434     6.15762
      H   28    0.16939      0.00000     0.82743    0.00318     0.83061
      C   29   -0.15485      1.99911     4.14134    0.01441     6.15485
      C   30   -0.18711      1.99897     4.17333    0.01482     6.18711
      H   31    0.16918      0.00000     0.82766    0.00316     0.83082
      C   32   -0.43087      1.99900     4.41328    0.01859     6.43087
      H   33    0.22515      0.00000     0.77057    0.00427     0.77485
      H   34    0.21356      0.00000     0.78278    0.00366     0.78644
      C   35   -0.18135      1.99909     4.16801    0.01425     6.18135
      H   36    0.16986      0.00000     0.82693    0.00321     0.83014
      C   37   -0.56543      1.99914     4.55441    0.01188     6.56543
      H   38    0.19379      0.00000     0.80329    0.00292     0.80621
      H   39    0.18799      0.00000     0.80830    0.00371     0.81201
      H   40    0.19405      0.00000     0.80311    0.00284     0.80595
      H   41    0.18896      0.00000     0.80814    0.00290     0.81104
      H   42    0.18380      0.00000     0.81361    0.00260     0.81620
      H   43    0.16801      0.00000     0.82893    0.00305     0.83199
 =======================================================================
   * Total *   -0.00000     47.98155   107.54547    0.47298   156.00000

 ******   33 imaginary frequencies (negative Signs) ******

                      1                      2                      3
                      A                      A                      A
 Frequencies --  -2070.1695             -1545.4937             -1462.3393
 Red. masses --      1.0770                 1.0978                 1.0824
 Frc consts  --      2.7194                 1.5449                 1.3637
 IR Inten    --    121.4346               140.6203                79.0609

                      4                      5                      6
                      A                      A                      A
 Frequencies --  -1382.9111             -1379.3362             -1366.4447
 Red. masses --      1.0085                 1.0088                 1.0216
 Frc consts  --      1.1364                 1.1308                 1.1239
 IR Inten    --      0.0102                 0.1475                 0.3746

                      7                      8                      9
                      A                      A                      A
 Frequencies --  -1363.9307             -1309.1361             -1243.4459
 Red. masses --      1.0357                 1.0354                 1.0200
 Frc consts  --      1.1352                 1.0455                 0.9292
 IR Inten    --      0.4272                 1.9878                 0.1930

                     10                     11                     12
                      A                      A                      A
 Frequencies --  -1160.6967             -1120.5713             -1098.7985
 Red. masses --      1.0351                 1.0257                 1.0324
 Frc consts  --      0.8216                 0.7588                 0.7344
 IR Inten    --      0.5510                 6.7146                 5.6345

                     13                     14                     15
                      A                      A                      A
 Frequencies --  -1032.5116             -1014.5360              -991.6213
 Red. masses --      1.0727                 1.0320                 1.0343
 Frc consts  --      0.6738                 0.6259                 0.5992
 IR Inten    --      6.5106                 6.3587                 1.3168

                     16                     17                     18
                      A                      A                      A
 Frequencies --   -987.5842              -986.5428              -965.7698
 Red. masses --      1.0153                 1.0475                 1.0412
 Frc consts  --      0.5834                 0.6007                 0.5722
 IR Inten    --      0.2343                 7.4449                12.7426

                     19                     20                     21
                      A                      A                      A
 Frequencies --   -957.4494              -926.3072              -892.0110
 Red. masses --      1.0372                 1.0746                 1.1400
 Frc consts  --      0.5602                 0.5433                 0.5344
 IR Inten    --      5.3008                 1.2328                 0.6756

                     22                     23                     24
                      A                      A                      A
 Frequencies --   -830.1708              -730.3449              -697.4015
 Red. masses --      1.1132                 1.1177                 1.1094
 Frc consts  --      0.4520                 0.3513                 0.3179
 IR Inten    --      9.9916                 6.7719                 3.9283

                     25                     26                     27
                      A                      A                      A
 Frequencies --   -695.1834              -600.4004              -527.1705
 Red. masses --      1.0722                 1.0960                 1.2888
 Frc consts  --      0.3053                 0.2328                 0.2110
 IR Inten    --     11.3696                 7.7302                 6.7275

                     28                     29                     30
                      A                      A                      A
 Frequencies --   -522.5192              -442.7366              -433.8733
 Red. masses --      1.2462                 1.2520                 1.2181
 Frc consts  --      0.2005                 0.1446                 0.1351
 IR Inten    --      3.3422                 0.4002                 2.8098

                     31                     32                     33
                      A                      A                      A
 Frequencies --   -387.7469              -321.0679              -259.8922
 Red. masses --      1.2259                 1.6500                 1.6993
 Frc consts  --      0.1086                 0.1002                 0.0676
 IR Inten    --      1.9663                 1.5987                 2.4587

                     34                     35                     36
                      A                      A                      A
 Frequencies --     95.0949               142.2944               162.1383
 Red. masses --      6.6722                 1.8914                 8.2894
 Frc consts  --      0.0355                 0.0226                 0.1284
 IR Inten    --      0.0267                 1.1374                 0.2002

                     37                     38                     39
                      A                      A                      A
 Frequencies --    217.0405               246.8181               271.7366
 Red. masses --      5.0909                 3.1443                 4.7154
 Frc consts  --      0.1413                 0.1129                 0.2051
 IR Inten    --      5.0651                 1.3290                 2.0235

                     40                     41                     42
                      A                      A                      A
 Frequencies --    292.0927               313.9317               342.7805
 Red. masses --      7.2141                 4.7446                 4.4822
 Frc consts  --      0.3626                 0.2755                 0.3103
 IR Inten    --      0.2892                 2.7529                 4.7617

                     43                     44                     45
                      A                      A                      A
 Frequencies --    353.9270               359.1333               379.5389
 Red. masses --      4.9111                 1.2106                 5.9763
 Frc consts  --      0.3625                 0.0920                 0.5072
 IR Inten    --      3.0486                14.1196                 1.4060

                     46                     47                     48
                      A                      A                      A
 Frequencies --    404.5634               413.3541               427.1570
 Red. masses --      3.5065                 1.3255                 3.7079
 Frc consts  --      0.3381                 0.1334                 0.3986
 IR Inten    --      3.3589                11.3280                 3.9074

                     49                     50                     51
                      A                      A                      A
 Frequencies --    428.1539               432.1533               444.6815
 Red. masses --      2.1888                 2.3136                 2.7723
 Frc consts  --      0.2364                 0.2546                 0.3230
 IR Inten    --      9.4692                 7.5244                 2.3637

                     52                     53                     54
                      A                      A                      A
 Frequencies --    486.5278               532.1961               536.0196
 Red. masses --      4.8978                 8.7004                 4.2423
 Frc consts  --      0.6831                 1.4519                 0.7181
 IR Inten    --      0.6287                 0.5233                 4.4797

                     55                     56                     57
                      A                      A                      A
 Frequencies --    578.2545               585.5951               592.2645
 Red. masses --      4.8959                 5.6054                 4.6028
 Frc consts  --      0.9645                 1.1325                 0.9513
 IR Inten    --      2.0439                 3.9762                 2.8117

                     58                     59                     60
                      A                      A                      A
 Frequencies --    641.2747               665.5434               674.8612
 Red. masses --      4.6605                 2.8688                 5.7291
 Frc consts  --      1.1292                 0.7487                 1.5373
 IR Inten    --      5.6923                 6.5119                 1.1568

                     61                     62                     63
                      A                      A                      A
 Frequencies --    708.3336               709.0222               735.3654
 Red. masses --      4.5764                 4.7089                 4.3847
 Frc consts  --      1.3528                 1.3947                 1.3970
 IR Inten    --      2.0273                 3.3705                 1.7696

                     64                     65                     66
                      A                      A                      A
 Frequencies --    758.5695               770.1338               786.7023
 Red. masses --      4.0247                 4.8154                 4.3104
 Frc consts  --      1.3645                 1.6827                 1.5718
 IR Inten    --      0.8834                 2.4101                 8.7733

                     67                     68                     69
                      A                      A                      A
 Frequencies --    823.4367               833.8909               843.5595
 Red. masses --      4.0376                 5.6654                 4.8164
 Frc consts  --      1.6130                 2.3211                 2.0193
 IR Inten    --     10.1860                 0.7752                10.5786

                     70                     71                     72
                      A                      A                      A
 Frequencies --    894.9730               910.6272               913.4977
 Red. masses --      2.5797                 4.5739                 3.3608
 Frc consts  --      1.2174                 2.2347                 1.6524
 IR Inten    --     10.8349                 1.5898                35.7193

                     73                     74                     75
                      A                      A                      A
 Frequencies --    930.0344               943.6852               953.6903
 Red. masses --      1.4481                 1.5112                 1.1922
 Frc consts  --      0.7380                 0.7929                 0.6389
 IR Inten    --     63.3447                11.2759                15.3298

                     76                     77                     78
                      A                      A                      A
 Frequencies --    960.5507               968.3139               975.3284
 Red. masses --      1.1494                 1.2666                 1.2017
 Frc consts  --      0.6248                 0.6997                 0.6735
 IR Inten    --      2.1834                 5.4489                 4.0607

                     79                     80                     81
                      A                      A                      A
 Frequencies --    982.8868              1008.7749              1018.6610
 Red. masses --      1.2927                 1.3876                 1.6306
 Frc consts  --      0.7358                 0.8320                 0.9969
 IR Inten    --      6.0535                 7.1739                22.4338

                     82                     83                     84
                      A                      A                      A
 Frequencies --   1030.9412              1032.7960              1065.1591
 Red. masses --      3.4361                 2.6105                 6.1506
 Frc consts  --      2.1517                 1.6406                 4.1115
 IR Inten    --     62.7637                 9.1662                 0.2757

                     85                     86                     87
                      A                      A                      A
 Frequencies --   1068.7467              1076.1994              1161.3206
 Red. masses --      1.9011                 3.7754                 5.5882
 Frc consts  --      1.2794                 2.5763                 4.4404
 IR Inten    --      7.3169                 2.1753                15.1936

                     88                     89                     90
                      A                      A                      A
 Frequencies --   1170.0829              1202.3245              1222.9768
 Red. masses --      4.9661                 3.1114                 5.8455
 Frc consts  --      4.0059                 2.6500                 5.1512
 IR Inten    --      0.5692                 3.1575                 2.6400

                     91                     92                     93
                      A                      A                      A
 Frequencies --   1240.6947              1287.9201              1303.7369
 Red. masses --      7.3984                 7.0035                 5.9657
 Frc consts  --      6.7099                 6.8445                 5.9744
 IR Inten    --      0.8449                 1.1661                 5.0918

                     94                     95                     96
                      A                      A                      A
 Frequencies --   1320.1464              1395.0548              1485.0848
 Red. masses --      7.0034                 8.1772                 8.5902
 Frc consts  --      7.1912                 9.3764                11.1624
 IR Inten    --      6.3312                 0.2731                 4.7480

                     97                     98                     99
                      A                      A                      A
 Frequencies --   1518.3038              1693.2077              1755.6602
 Red. masses --      8.7470                10.5277                 9.9035
 Frc consts  --     11.8803                17.7829                17.9855
 IR Inten    --      1.3513                 9.0766                 0.4180

                    100                    101                    102
                      A                      A                      A
 Frequencies --   1766.4115              4362.2911              4377.7980
 Red. masses --     12.1758                 1.0884                 1.0889
 Frc consts  --     22.3838                12.2031                12.2958
 IR Inten    --      6.2664                21.8192                 4.4711

                    103                    104                    105
                      A                      A                      A
 Frequencies --   4424.1588              4425.1186              4428.5067
 Red. masses --      1.0568                 1.0605                 1.0605
 Frc consts  --     12.1869                12.2348                12.2537
 IR Inten    --      4.3168                 1.3340                 1.9930

                    106                    107                    108
                      A                      A                      A
 Frequencies --   4462.3891              4468.0844              4469.0461
 Red. masses --      1.0320                 1.0321                 1.0322
 Frc consts  --     12.1078                12.1396                12.1458
 IR Inten    --      5.7181                10.5031                 7.2099

                    109                    110                    111
                      A                      A                      A
 Frequencies --   4548.0015              4550.6929              4568.4479
 Red. masses --      1.1075                 1.1078                 1.1139
 Frc consts  --     13.4975                13.5160                13.6972
 IR Inten    --      0.7864                 2.8328                 4.1129

                    112                    113                    114
                      A                      A                      A
 Frequencies --   4667.0421              4672.0344              4673.7832
 Red. masses --      1.1064                 1.1072                 1.1068
 Frc consts  --     14.1986                14.2391                14.2451
 IR Inten    --      5.3226                 0.7241                 7.0347

                    115                    116                    117
                      A                      A                      A
 Frequencies --   4674.9383              4677.5207              4678.3856
 Red. masses --      1.1069                 1.1060                 1.1065
 Frc consts  --     14.2531                14.2578                14.2695
 IR Inten    --      0.1248                 2.4821                 3.8875

                    118                    119                    120
                      A                      A                      A
 Frequencies --   5018.1052              5027.4646              5030.0050
 Red. masses --      1.0866                 1.0881                 1.0894
 Frc consts  --     16.1219                16.2032                16.2398
 IR Inten    --      0.5064                 0.1492                 0.7410

                    121                    122                    123
                      A                      A                      A
 Frequencies --   5035.2430              5046.8021              6326.4190
 Red. masses --      1.0916                 1.0921                 1.0679
 Frc consts  --     16.3068                16.3881                25.1833
 IR Inten    --      0.5413                 0.5132               271.6242

 - Thermochemistry -
 -------------------
 Temperature   298.150 Kelvin.  Pressure   1.00000 Atm.
 Atom     1 has atomic number  7 and mass  14.00307

 Molecular mass:   289.15004 amu.
 Principal axes and moments of inertia in atomic units:
                           1         2         3
     Eigenvalues --  3545.906147758.436909476.80033
           X            0.99990   0.01405   0.00196
           Y           -0.01404   0.99989  -0.00477
           Z           -0.00203   0.00474   0.99999
 This molecule is an asymmetric top.
 Rotational symmetry number  1.
 Warning -- assumption of classical behavior for rotation
           may cause significant error
 Rotational temperatures (Kelvin)      0.02443     0.01116     0.00914
 Rotational constants (GHZ):           0.50896     0.23262     0.19044
   33 imaginary frequencies ignored.
 Zero-point vibrational energy     974108.4 (Joules/Mol)
                                  232.81750 (Kcal/Mol)
 Warning -- explicit consideration of  24 degrees of freedom as
           vibrations may cause significant error
 Vibrational temperatures:    136.82   204.73   233.28   312.27   355.12
          (Kelvin)            390.97   420.26   451.68   493.18   509.22
                              516.71   546.07   582.08   594.72   614.58
                              616.02   621.77   639.80   700.00   765.71
                              771.21   831.98   842.54   852.14   922.65
                              957.57   970.97  1019.13  1020.12  1058.03
                             1091.41  1108.05  1131.89  1184.74  1199.78
                             1213.69  1287.67  1310.19  1314.32  1338.11
                             1357.75  1372.15  1382.02  1393.19  1403.28
                             1414.15  1451.40  1465.63  1483.29  1485.96
                             1532.53  1537.69  1548.41  1670.88  1683.49
                             1729.88  1759.59  1785.08  1853.03  1875.79
                             1899.40  2007.17  2136.71  2184.50  2436.15
                             2526.00  2541.47  6276.36  6298.67  6365.38
                             6366.76  6371.63  6420.38  6428.58  6429.96
                             6543.56  6547.43  6572.98  6714.83  6722.02
                             6724.53  6726.19  6729.91  6731.15  7219.93
                             7233.40  7237.06  7244.59  7261.22  9102.31

 Zero-point correction=                           0.371018 (Hartree/Particle)
 Thermal correction to Energy=                    0.384448
 Thermal correction to Enthalpy=                  0.385392
 Thermal correction to Gibbs Free Energy=         0.332141
 Sum of electronic and zero-point Energies=          -1187.265958
 Sum of electronic and thermal Energies=             -1187.252528
 Sum of electronic and thermal Enthalpies=           -1187.251584
 Sum of electronic and thermal Free Energies=        -1187.304835

                     E (Thermal)             CV                S
                      KCal/Mol        Cal/Mol-Kelvin    Cal/Mol-Kelvin
 Total                  241.245             59.493            112.076
 Electronic               0.000              0.000              0.000
 Translational            0.889              2.981             42.883
 Rotational               0.889              2.981             33.921
 Vibrational            239.467             53.531             35.272
 Vibration     1          0.603              1.953              3.552
 Vibration     2          0.616              1.911              2.773
 Vibration     3          0.622              1.889              2.525
 Vibration     4          0.646              1.815              1.984
 Vibration     5          0.661              1.768              1.753
 Vibration     6          0.675              1.725              1.585
 Vibration     7          0.687              1.688              1.462
 Vibration     8          0.702              1.647              1.342
 Vibration     9          0.722              1.590              1.199
 Vibration    10          0.730              1.567              1.149
 Vibration    11          0.734              1.556              1.126
 Vibration    12          0.750              1.514              1.041
 Vibration    13          0.770              1.460              0.946
 Vibration    14          0.777              1.441              0.915
 Vibration    15          0.789              1.411              0.868
 Vibration    16          0.790              1.409              0.865
 Vibration    17          0.793              1.400              0.852
 Vibration    18          0.804              1.373              0.812
 Vibration    19          0.843              1.280              0.693
 Vibration    20          0.887              1.179              0.582
 Vibration    21          0.891              1.170              0.574
 Vibration    22          0.935              1.078              0.489
 Vibration    23          0.943              1.063              0.475
 Vibration    24          0.950              1.048              0.463

 Normal termination of Gaussian 16 at Sat Mar  4 13:01:13 2023.
