 Gaussian 16, Revision C.01,
 Gaussian 16:  ES64L-G16RevC.01  3-Jul-2019

 ----------------------------------------------------------------------
 #p pop=(regular,nbo,savenbos) freq=noraman def2svp empiricaldispersion
 =gd3bj output=wfx pbe1pbe
 ----------------------------------------------------------------------

 ----------------------------------------
 CUCKUI_Complex_0_Ligand_0_NN_Cu_oriented
 ----------------------------------------
 Symbolic Z-matrix:
 Charge =  0 Multiplicity = 1

                         Standard orientation:
 ---------------------------------------------------------------------
 Center     Atomic      Atomic             Coordinates (Angstroms)
 Number     Number       Type             X           Y           Z
 ---------------------------------------------------------------------
      1          6           0        2.295708    0.626730   -0.631894
      2          1           0        2.378667    0.990154   -1.548510
      3          1           0        3.204455    0.578845   -0.242665
      4          6           0        1.452240    1.578773    0.202298
      5          1           0        1.942067    2.447651    0.277226
      6          6           0        0.083271    1.852057   -0.404425
      7          1           0       -0.391254    2.518246    0.152627
      8          1           0        0.199057    2.239502   -1.308310
      9          6           0       -2.114593    0.998528   -0.962982
     10          1           0       -2.049662    1.441271   -1.846028
     11          1           0       -2.502551    1.649025   -0.324905
     12          6           0       -0.854186   -0.048444    0.854308
     13          1           0       -1.311307    0.601222    1.461385
     14          6           0        0.534068   -0.313649    1.444489
     15          1           0        0.408005   -0.706734    2.355953
     16          6           0        1.400004   -1.273612    0.638686
     17          1           0        2.240288   -1.443718    1.133386
     18          1           0        0.923083   -2.136154    0.543219
     19          6           0        1.278119    1.004982    1.605346
     20          1           0        2.160838    0.854395    2.029110
     21          1           0        0.757444    1.628499    2.171313
     22          6           0        2.728595   -1.636101   -1.343818
     23          1           0        3.538431   -1.664056   -0.792608
     24          1           0        2.950867   -1.290643   -2.233590
     25          1           0        2.359384   -2.540162   -1.426754
     26          7           0        1.728552   -0.750721   -0.706897
     27          7           0       -0.744761    0.615293   -0.502911
     28          6           0       -3.035773   -0.202710   -1.072332
     29          1           0       -2.687999   -0.825417   -1.759704
     30          1           0       -3.937109    0.094791   -1.356158
     31          6           0       -3.134659   -0.925936    0.269264
     32          1           0       -3.587790   -0.341949    0.928926
     33          1           0       -3.673317   -1.749529    0.164485
     34          6           0       -1.743015   -1.285833    0.776231
     35          1           0       -1.331595   -1.948826    0.166268
     36          1           0       -1.815224   -1.697122    1.672975
 ---------------------------------------------------------------------

 SCF Done:  E(RPBE1PBE) =  -578.739720496     A.U. after   13 cycles

 The electronic state is 1-A.
 Alpha  occ. eigenvalues --  -14.35875 -14.35605 -10.23155 -10.21674 -10.21574
 Alpha  occ. eigenvalues --  -10.21530 -10.21409 -10.21312 -10.21200 -10.20141
 Alpha  occ. eigenvalues --  -10.19558 -10.19348 -10.19124 -10.19098  -0.93688
 Alpha  occ. eigenvalues --   -0.91130  -0.83286  -0.81824  -0.78961  -0.75643
 Alpha  occ. eigenvalues --   -0.71897  -0.70930  -0.65213  -0.65119  -0.62301
 Alpha  occ. eigenvalues --   -0.61823  -0.58353  -0.54779  -0.50954  -0.49760
 Alpha  occ. eigenvalues --   -0.48857  -0.48280  -0.46975  -0.46766  -0.45508
 Alpha  occ. eigenvalues --   -0.44980  -0.44165  -0.42365  -0.41810  -0.40461
 Alpha  occ. eigenvalues --   -0.40129  -0.38935  -0.38502  -0.37522  -0.36336
 Alpha  occ. eigenvalues --   -0.35701  -0.34989  -0.33753  -0.32371  -0.31467
 Alpha  occ. eigenvalues --   -0.30041  -0.29363  -0.22265  -0.18532
 Alpha virt. eigenvalues --    0.07176   0.09288   0.09712   0.10375   0.11707
 Alpha virt. eigenvalues --    0.12459   0.12975   0.13584   0.14634   0.15039
 Alpha virt. eigenvalues --    0.15953   0.16261   0.16749   0.17148   0.17357

 Mulliken charges:
               1
     1  C    0.310508
     2  H   -0.029799
     3  H   -0.057275
     4  C   -0.181907
     5  H   -0.022808
     6  C    0.325224
     7  H   -0.056646
     8  H   -0.031065
     9  C    0.209812
    10  H   -0.023255
    11  H   -0.055115
    12  C    0.069802
    13  H   -0.056645
    14  C   -0.131838
    15  H   -0.028936
    16  C    0.325220
    17  H   -0.059803
    18  H   -0.032322
    19  C    0.190977
    20  H   -0.033561
    21  H   -0.036193
    22  C    0.277550
    23  H   -0.051663
    24  H   -0.018212
    25  H   -0.018975
    26  N   -0.482954
    27  N   -0.456596
    28  C    0.076592
    29  H   -0.010415
    30  H   -0.020333
    31  C    0.047224
    32  H   -0.026594
    33  H   -0.017289
    34  C    0.150090
    35  H   -0.012803
    36  H   -0.029996
 Sum of Mulliken charges =  -0.00000

 Dipole moment (field-independent basis, Debye):
    X=              0.3032    Y=              0.4397    Z=              0.9012  Tot=              1.0476
 Quadrupole moment (field-independent basis, Debye-Ang):
   XX=            -82.7376   YY=            -83.4491   ZZ=            -86.0457
   XY=              0.0276   XZ=             -0.3490   YZ=             -1.1574

  Exact polarizability:     136.007       1.222     119.057       0.452      -1.805     112.201
 Approx polarizability:     166.611       1.518     164.641      -0.107      -2.156     161.238

 Summary of Natural Population Analysis:

                                       Natural Population
                Natural  -----------------------------------------------
    Atom  No    Charge         Core      Valence    Rydberg      Total
 -----------------------------------------------------------------------
      C    1   -0.16741      1.99904     4.14885    0.01952     6.16741
      H    2    0.19020      0.00000     0.80639    0.00340     0.80980
      H    3    0.15948      0.00000     0.83403    0.00648     0.84052
      C    4   -0.21788      1.99906     4.20266    0.01616     6.21788
      H    5    0.20932      0.00000     0.78692    0.00376     0.79068
      C    6   -0.16346      1.99905     4.14454    0.01988     6.16346
      H    7    0.16208      0.00000     0.83173    0.00618     0.83792
      H    8    0.19167      0.00000     0.80500    0.00333     0.80833
      C    9   -0.15960      1.99908     4.14397    0.01655     6.15960
      H   10    0.18942      0.00000     0.80733    0.00325     0.81058
      H   11    0.15293      0.00000     0.84024    0.00683     0.84707
      C   12   -0.00707      1.99897     3.98650    0.02160     6.00707
      H   13    0.16661      0.00000     0.82576    0.00763     0.83339
      C   14   -0.22125      1.99902     4.20455    0.01769     6.22125
      H   15    0.21158      0.00000     0.78444    0.00398     0.78842
      C   16   -0.16729      1.99905     4.14818    0.02005     6.16729
      H   17    0.16055      0.00000     0.83301    0.00644     0.83945
      H   18    0.19081      0.00000     0.80595    0.00324     0.80919
      C   19   -0.38132      1.99909     4.36493    0.01729     6.38132
      H   20    0.19682      0.00000     0.79906    0.00412     0.80318
      H   21    0.19634      0.00000     0.79968    0.00398     0.80366
      C   22   -0.32900      1.99917     4.31845    0.01138     6.32900
      H   23    0.14883      0.00000     0.84529    0.00588     0.85117
      H   24    0.18303      0.00000     0.81467    0.00230     0.81697
      H   25    0.18291      0.00000     0.81480    0.00229     0.81709
      N   26   -0.54254      1.99943     5.52937    0.01374     7.54254
      N   27   -0.56347      1.99940     5.54947    0.01459     7.56347
      C   28   -0.37801      1.99913     4.36660    0.01228     6.37801
      H   29    0.19278      0.00000     0.80221    0.00501     0.80722
      H   30    0.19529      0.00000     0.80137    0.00333     0.80471
      C   31   -0.36906      1.99913     4.35737    0.01256     6.36906
      H   32    0.18247      0.00000     0.81304    0.00449     0.81753
      H   33    0.19491      0.00000     0.80168    0.00341     0.80509
      C   34   -0.38451      1.99909     4.37070    0.01472     6.38451
      H   35    0.19703      0.00000     0.79825    0.00473     0.80297
      H   36    0.19682      0.00000     0.79966    0.00352     0.80318
 =======================================================================
   * Total *    0.00000     27.98771    79.68667    0.32562   108.00000

 ******   17 imaginary frequencies (negative Signs) ******

                      1                      2                      3
                      A                      A                      A
 Frequencies --  -1233.0383              -932.9203              -905.7551
 Red. masses --      1.0107                 1.0550                 1.0318
 Frc consts  --      0.9054                 0.5410                 0.4987
 IR Inten    --      0.1019                 3.0290                 0.4804

                      4                      5                      6
                      A                      A                      A
 Frequencies --   -896.4482              -878.2542              -872.1952
 Red. masses --      1.0653                 1.0541                 1.0506
 Frc consts  --      0.5044                 0.4790                 0.4709
 IR Inten    --      2.7864                 2.2423                 0.5397

                      7                      8                      9
                      A                      A                      A
 Frequencies --   -867.3770              -863.7679              -850.1326
 Red. masses --      1.0472                 1.0536                 1.0475
 Frc consts  --      0.4642                 0.4632                 0.4461
 IR Inten    --      1.9516                 0.4818                 0.9718

                     10                     11                     12
                      A                      A                      A
 Frequencies --   -730.5997              -726.1027              -379.9595
 Red. masses --      1.1303                 1.1209                 2.0980
 Frc consts  --      0.3555                 0.3482                 0.1785
 IR Inten    --      0.7966                 2.2087                 0.0549

                     13                     14                     15
                      A                      A                      A
 Frequencies --   -339.9711              -290.7131              -257.5571
 Red. masses --      1.8927                 1.5775                 1.8460
 Frc consts  --      0.1289                 0.0785                 0.0721
 IR Inten    --      0.1970                 0.1929                 0.1579

                     16                     17                     18
                      A                      A                      A
 Frequencies --   -245.3372              -215.2743                70.2358
 Red. masses --      2.0548                 2.4264                 1.5405
 Frc consts  --      0.0729                 0.0663                 0.0045
 IR Inten    --      0.2239                 0.1841                 0.8912

                     19                     20                     21
                      A                      A                      A
 Frequencies --    127.3712               179.2751               214.7074
 Red. masses --      1.5795                 2.3271                 2.0944
 Frc consts  --      0.0151                 0.0441                 0.0569
 IR Inten    --      0.1150                 1.4424                 0.1470

                     22                     23                     24
                      A                      A                      A
 Frequencies --    250.2461               383.8239               420.5564
 Red. masses --      1.4723                 1.5756                 1.5920
 Frc consts  --      0.0543                 0.1368                 0.1659
 IR Inten    --      0.4850                 0.9751                 0.1083

                     25                     26                     27
                      A                      A                      A
 Frequencies --    463.5122               492.3584               495.1199
 Red. masses --      1.8206                 1.3905                 1.3588
 Frc consts  --      0.2305                 0.1986                 0.1963
 IR Inten    --      3.7006                 4.0686                 0.3881

                     28                     29                     30
                      A                      A                      A
 Frequencies --    544.9540               555.5472               575.6143
 Red. masses --      1.8789                 2.4000                 2.5602
 Frc consts  --      0.3288                 0.4364                 0.4998
 IR Inten    --      1.8848                 5.2726                 3.0699

                     31                     32                     33
                      A                      A                      A
 Frequencies --    584.3513               607.1871               660.7214
 Red. masses --      1.8286                 1.4266                 1.3108
 Frc consts  --      0.3679                 0.3099                 0.3371
 IR Inten    --      4.2721                 1.3065                14.2522

                     34                     35                     36
                      A                      A                      A
 Frequencies --    669.1621               694.4481               699.4493
 Red. masses --      1.3438                 1.5540                 1.4126
 Frc consts  --      0.3545                 0.4415                 0.4072
 IR Inten    --      1.8186                 2.3816                 0.2755

                     37                     38                     39
                      A                      A                      A
 Frequencies --    709.0862               718.7362               741.8754
 Red. masses --      1.3808                 1.9530                 1.4281
 Frc consts  --      0.4090                 0.5944                 0.4631
 IR Inten    --      1.8666                 0.5900                 2.7123

                     40                     41                     42
                      A                      A                      A
 Frequencies --    771.4668               779.4051               790.6449
 Red. masses --      1.9689                 1.9498                 1.4438
 Frc consts  --      0.6904                 0.6979                 0.5318
 IR Inten    --      0.7261                 1.8376                 3.7890

                     43                     44                     45
                      A                      A                      A
 Frequencies --    825.9710               843.4967               866.1580
 Red. masses --      2.1190                 2.0599                 1.4968
 Frc consts  --      0.8517                 0.8635                 0.6616
 IR Inten    --      2.3187                 1.5385                 0.6569

                     46                     47                     48
                      A                      A                      A
 Frequencies --    889.7411               893.0978               908.6069
 Red. masses --      2.0091                 1.8887                 1.8807
 Frc consts  --      0.9371                 0.8876                 0.9148
 IR Inten    --      0.8226                 3.9209                 0.3404

                     49                     50                     51
                      A                      A                      A
 Frequencies --    926.7001               935.7211               953.6807
 Red. masses --      2.1510                 2.4918                 2.1163
 Frc consts  --      1.0883                 1.2854                 1.1340
 IR Inten    --      2.7137                 1.7650                 0.4453

                     52                     53                     54
                      A                      A                      A
 Frequencies --    964.2074               996.2530              1011.1306
 Red. masses --      1.8382                 2.9059                 2.1426
 Frc consts  --      1.0069                 1.6993                 1.2906
 IR Inten    --      2.2225                 4.8544                14.7072

                     55                     56                     57
                      A                      A                      A
 Frequencies --   1025.2087              1049.0681              1063.3017
 Red. masses --      2.1927                 2.3871                 3.6600
 Frc consts  --      1.3579                 1.5478                 2.4381
 IR Inten    --      2.4776                 6.5057                10.4017

                     58                     59                     60
                      A                      A                      A
 Frequencies --   1084.2490              1087.1074              1090.2097
 Red. masses --      3.1505                 1.4859                 1.5611
 Frc consts  --      2.1821                 1.0346                 1.0932
 IR Inten    --      6.2847                20.1355                 3.0053

                     61                     62                     63
                      A                      A                      A
 Frequencies --   1092.9334              1098.0671              1115.0917
 Red. masses --      1.8362                 1.6721                 1.2212
 Frc consts  --      1.2923                 1.1879                 0.8947
 IR Inten    --      6.6124                17.7276                16.6511

                     64                     65                     66
                      A                      A                      A
 Frequencies --   1118.3412              1126.5733              1131.8642
 Red. masses --      1.1084                 1.3809                 1.3944
 Frc consts  --      0.8168                 1.0326                 1.0525
 IR Inten    --      5.3508                13.6263                 1.7966

                     67                     68                     69
                      A                      A                      A
 Frequencies --   1136.4069              1142.1489              1150.0108
 Red. masses --      1.3480                 1.2817                 1.6047
 Frc consts  --      1.0257                 0.9851                 1.2504
 IR Inten    --      9.1485                 1.9381                 9.2807

                     70                     71                     72
                      A                      A                      A
 Frequencies --   1160.7663              1171.1580              1177.8628
 Red. masses --      1.9352                 1.8745                 2.4624
 Frc consts  --      1.5363                 1.5148                 2.0128
 IR Inten    --      6.9794                24.4728                40.9413

                     73                     74                     75
                      A                      A                      A
 Frequencies --   1194.6472              1202.1203              1225.7234
 Red. masses --      2.8476                 3.7735                 3.3490
 Frc consts  --      2.3945                 3.2129                 2.9645
 IR Inten    --      6.4741                 2.7530                14.3606

                     76                     77                     78
                      A                      A                      A
 Frequencies --   1256.6595              1266.2058              1272.9254
 Red. masses --      4.3280                 3.9308                 4.2034
 Frc consts  --      4.0269                 3.7131                 4.0129
 IR Inten    --      3.9076                 8.3477                13.4410

                     79                     80                     81
                      A                      A                      A
 Frequencies --   1285.5585              1294.4581              4091.8687
 Red. masses --      4.2406                 7.1132                 1.0859
 Frc consts  --      4.1292                 7.0225                10.7121
 IR Inten    --      1.8596                 3.5877                43.2375

                     82                     83                     84
                      A                      A                      A
 Frequencies --   4114.2963              4119.9673              4169.2803
 Red. masses --      1.0868                 1.0869                 1.0598
 Frc consts  --     10.8392                10.8695                10.8537
 IR Inten    --     16.3676                11.5611                63.1852

                     85                     86                     87
                      A                      A                      A
 Frequencies --   4169.6095              4172.9389              4174.2012
 Red. masses --      1.0598                 1.0593                 1.0598
 Frc consts  --     10.8559                10.8681                10.8793
 IR Inten    --     11.4122                59.9377                36.8816

                     88                     89                     90
                      A                      A                      A
 Frequencies --   4178.8716              4181.6103              4185.3172
 Red. masses --      1.0602                 1.0597                 1.0609
 Frc consts  --     10.9088                10.9169                10.9490
 IR Inten    --     53.6440                13.8844                29.0421

                     91                     92                     93
                      A                      A                      A
 Frequencies --   4191.7385              4225.1729              4279.6916
 Red. masses --      1.0606                 1.0308                 1.1086
 Frc consts  --     10.9797                10.8425                11.9628
 IR Inten    --     13.4279                48.5601                21.8163

                     94                     95                     96
                      A                      A                      A
 Frequencies --   4282.3154              4284.6544              4286.1485
 Red. masses --      1.1084                 1.1088                 1.1083
 Frc consts  --     11.9753                11.9935                11.9963
 IR Inten    --     25.9047                 4.4565                21.8747

                     97                     98                     99
                      A                      A                      A
 Frequencies --   4289.4442              4291.8044              4297.6482
 Red. masses --      1.1095                 1.1089                 1.1085
 Frc consts  --     12.0277                12.0339                12.0626
 IR Inten    --     19.2077                 7.8231                12.8853

                    100                    101                    102
                      A                      A                      A
 Frequencies --   4304.1518              4406.5085              4429.7551
 Red. masses --      1.1083                 1.1069                 1.1078
 Frc consts  --     12.0968                12.6632                12.8080
 IR Inten    --     13.3986                23.3651                 5.1380

 - Thermochemistry -
 -------------------
 Temperature   298.150 Kelvin.  Pressure   1.00000 Atm.
 Atom     1 has atomic number  6 and mass  12.00000

 Molecular mass:   194.17830 amu.
 Principal axes and moments of inertia in atomic units:
                           1         2         3
     Eigenvalues --  1561.592493254.705223497.80157
           X            0.99998  -0.00494  -0.00261
           Y            0.00495   0.99998   0.00487
           Z            0.00259  -0.00489   0.99998
 This molecule is an asymmetric top.
 Rotational symmetry number  1.
 Warning -- assumption of classical behavior for rotation
           may cause significant error
 Rotational temperatures (Kelvin)      0.05547     0.02661     0.02476
 Rotational constants (GHZ):           1.15571     0.55450     0.51596
   17 imaginary frequencies ignored.
 Zero-point vibrational energy     881410.2 (Joules/Mol)
                                  210.66210 (Kcal/Mol)
 Warning -- explicit consideration of  15 degrees of freedom as
           vibrations may cause significant error
 Vibrational temperatures:    101.05   183.26   257.94   308.92   360.05
          (Kelvin)            552.24   605.09   666.89   708.39   712.37
                              784.07   799.31   828.18   840.75   873.61
                              950.63   962.78   999.16  1006.35  1020.22
                             1034.10  1067.39  1109.97  1121.39  1137.56
                             1188.39  1213.60  1246.21  1280.14  1284.97
                             1307.28  1333.31  1346.29  1372.13  1387.28
                             1433.39  1454.79  1475.05  1509.38  1529.85
                             1559.99  1564.11  1568.57  1572.49  1579.87
                             1604.37  1609.04  1620.89  1628.50  1635.04
                             1643.30  1654.61  1670.08  1685.04  1694.68
                             1718.83  1729.58  1763.54  1808.05  1821.79
                             1831.46  1849.63  1862.44  5887.29  5919.55
                             5927.71  5998.66  5999.14  6003.93  6005.74
                             6012.46  6016.40  6021.74  6030.98  6079.08
                             6157.52  6161.30  6164.66  6166.81  6171.55
                             6174.95  6183.36  6192.71  6339.98  6373.43

 Zero-point correction=                           0.335711 (Hartree/Particle)
 Thermal correction to Energy=                    0.346051
 Thermal correction to Enthalpy=                  0.346995
 Thermal correction to Gibbs Free Energy=         0.300220
 Sum of electronic and zero-point Energies=           -578.404009
 Sum of electronic and thermal Energies=              -578.393669
 Sum of electronic and thermal Enthalpies=            -578.392725
 Sum of electronic and thermal Free Energies=         -578.439501

                     E (Thermal)             CV                S
                      KCal/Mol        Cal/Mol-Kelvin    Cal/Mol-Kelvin
 Total                  217.150             47.466             98.447
 Electronic               0.000              0.000              0.000
 Translational            0.889              2.981             41.696
 Rotational               0.889              2.981             31.253
 Vibrational            215.373             41.504             25.498
 Vibration     1          0.598              1.968              4.147
 Vibration     2          0.611              1.926              2.985
 Vibration     3          0.629              1.868              2.336
 Vibration     4          0.645              1.819              2.003
 Vibration     5          0.663              1.762              1.729
 Vibration     6          0.753              1.505              1.024
 Vibration     7          0.783              1.426              0.890
 Vibration     8          0.821              1.331              0.756
 Vibration     9          0.848              1.267              0.678
 Vibration    10          0.851              1.261              0.670
 Vibration    11          0.900              1.151              0.555
 Vibration    12          0.911              1.128              0.533
 Vibration    13          0.932              1.084              0.494
 Vibration    14          0.941              1.065              0.477
 Vibration    15          0.966              1.017              0.437

 1\1\GINC-JST202\Freq\RPBE1PBE\def2SVP\C12H22N2\LAPLAZA\04-Mar-2023\0\\
 #p pop=(regular,nbo,savenbos) freq=noraman def2svp empiricaldispersion
 =gd3bj output=wfx pbe1pbe\\CUCKUI_Complex_0_Ligand_0_NN_Cu_oriented\\0
 ,1\C,1.48823366,2.04175109,1.26393375\H,0.9280509,1.74619505,2.0241873
 \H,1.6927515,3.00128259,1.39464621\C,2.78994971,1.25490782,1.27449675\
 H,3.28876247,1.48567816,2.11021466\C,2.57741252,-0.25201705,1.24482384
 \H,3.45494276,-0.70469317,1.31049457\H,2.03790429,-0.52039916,2.030590
 36\C,1.85673371,-2.19231996,-0.01491735\H,1.37027163,-2.51628278,0.784

 Normal termination of Gaussian 16 at Sat Mar  4 12:19:19 2023.
