 Gaussian 16, Revision C.01,
 Gaussian 16:  ES64L-G16RevC.01  3-Jul-2019

 ----------------------------------------------------------------------
 #p pop=(regular,nbo,savenbos) freq=noraman def2svp empiricaldispersion
 =gd3bj output=wfx pbe1pbe
 ----------------------------------------------------------------------

 ----------------------------------------
 CUJNOK_Complex_1_Ligand_0_ON_Cu_oriented
 ----------------------------------------
 Symbolic Z-matrix:
 Charge = -1 Multiplicity = 1

                         Standard orientation:
 ---------------------------------------------------------------------
 Center     Atomic      Atomic             Coordinates (Angstroms)
 Number     Number       Type             X           Y           Z
 ---------------------------------------------------------------------
      1          8           0       -2.796245    2.134997    0.003276
      2          7           0       -0.354823    0.623853    0.093447
      3          6           0       -2.650163   -0.267993    0.005017
      4          6           0       -3.360530    0.954748    0.001499
      5          6           0       -3.369791   -1.496729    0.016619
      6          6           0       -1.214982   -0.341333    0.009418
      7          6           0        1.091200    0.278540    0.030544
      8          6           0        1.535480   -0.375649    1.357584
      9          6           0        3.018159   -0.688021    1.318885
     10          6           0        3.812779    0.608178    1.109109
     11          6           0        3.418583    1.229592   -0.204269
     12          6           0        3.709245    0.261884   -1.360239
     13          6           0        2.909524   -1.000981   -1.158219
     14          6           0        1.407931   -0.692510   -1.128837
     15          6           0        1.908782    1.561237   -0.186479
     16          6           0        3.320871   -1.669380    0.172292
     17          1           0       -2.882660   -2.323114    0.028088
     18          1           0       -0.842739   -1.224449   -0.056713
     19          1           0        1.357512    0.226325    2.083487
     20          1           0        1.043793   -1.190040    1.488437
     21          1           0        3.275490   -1.089820    2.152092
     22          1           0        3.622337    1.220545    1.823526
     23          1           0        4.753337    0.409423    1.100606
     24          1           0        3.929522    2.032617   -0.330486
     25          1           0        3.460028    0.670119   -2.191689
     26          1           0        4.645255    0.050822   -1.376564
     27          1           0        3.090909   -1.596694   -1.888445
     28          1           0        0.916633   -1.508668   -1.004460
     29          1           0        1.150678   -0.288580   -1.960361
     30          1           0        1.725968    2.179147    0.525305
     31          1           0        1.660795    1.957829   -1.025293
     32          1           0        2.821654   -2.478710    0.297081
     33          1           0        4.260862   -1.871157    0.157716
     34          6           0       -4.773257    0.888083   -0.037623
     35          6           0       -5.422091   -0.322066   -0.026944
     36          6           0       -4.721189   -1.530388    0.012072
     37          1           0       -5.285008    1.699614   -0.072070
     38          1           0       -6.382212   -0.337852   -0.047398
     39          1           0       -5.191735   -2.367579    0.034218
 ---------------------------------------------------------------------

 SCF Done:  E(RPBE1PBE) =  -788.105179547     A.U. after   17 cycles

 The electronic state is 1-A.
 Alpha  occ. eigenvalues --  -18.94381 -14.20377 -10.13012 -10.11314 -10.11304
 Alpha  occ. eigenvalues --  -10.11035 -10.09958 -10.09587 -10.09575 -10.09458
 Alpha  occ. eigenvalues --  -10.09153 -10.08085 -10.07999 -10.07383 -10.06469
 Alpha  occ. eigenvalues --  -10.06231 -10.05166 -10.04727 -10.03862  -0.80658
 Alpha  occ. eigenvalues --   -0.78190  -0.76056  -0.70586  -0.70127  -0.69982
 Alpha  occ. eigenvalues --   -0.67009  -0.61314  -0.60977  -0.60548  -0.57795
 Alpha  occ. eigenvalues --   -0.52518  -0.52150  -0.51480  -0.47604  -0.46548
 Alpha  occ. eigenvalues --   -0.45612  -0.42142  -0.39614  -0.38996  -0.38783
 Alpha  occ. eigenvalues --   -0.38343  -0.37589  -0.34269  -0.34201  -0.33420
 Alpha  occ. eigenvalues --   -0.33245  -0.31758  -0.31584  -0.31077  -0.29127
 Alpha  occ. eigenvalues --   -0.28084  -0.25994  -0.25152  -0.24823  -0.24391
 Alpha  occ. eigenvalues --   -0.24216  -0.23759  -0.23561  -0.21200  -0.20572
 Alpha  occ. eigenvalues --   -0.20079  -0.19267  -0.17921  -0.16326  -0.14684
 Alpha  occ. eigenvalues --   -0.09276  -0.08968  -0.02912  -0.01993
 Alpha virt. eigenvalues --    0.12631   0.15967   0.19152   0.19842   0.20022
 Alpha virt. eigenvalues --    0.20516   0.21585   0.21865   0.22603   0.23030
 Alpha virt. eigenvalues --    0.23692   0.24557   0.25017   0.26167   0.27268

 Mulliken charges:
               1
     1  O   -0.434525
     2  N   -0.186430
     3  C   -0.094611
     4  C    0.160145
     5  C    0.060890
     6  C    0.116172
     7  C   -0.354536
     8  C    0.344147
     9  C   -0.187159
    10  C    0.277128
    11  C   -0.200235
    12  C    0.280108
    13  C   -0.173302
    14  C    0.305597
    15  C    0.377661
    16  C    0.261667
    17  H   -0.132029
    18  H   -0.132402
    19  H   -0.056829
    20  H   -0.068046
    21  H   -0.071023
    22  H   -0.058874
    23  H   -0.073607
    24  H   -0.070572
    25  H   -0.060707
    26  H   -0.073642
    27  H   -0.072559
    28  H   -0.059066
    29  H   -0.054834
    30  H   -0.061760
    31  H   -0.062543
    32  H   -0.060386
    33  H   -0.070010
    34  C   -0.014366
    35  C    0.075681
    36  C    0.009868
    37  H   -0.137674
    38  H   -0.117276
    39  H   -0.130064
 Sum of Mulliken charges =  -1.00000

 Dipole moment (field-independent basis, Debye):
    X=             11.6185    Y=             -5.0872    Z=             -0.1560  Tot=             12.6843
 Quadrupole moment (field-independent basis, Debye-Ang):
   XX=           -165.1743   YY=           -128.8887   ZZ=           -117.0331
   XY=             10.4040   XZ=              0.1452   YZ=             -0.2921

  Exact polarizability:     269.879       8.497     165.617       1.500      -0.013     116.802
 Approx polarizability:     336.193      25.724     286.303       3.280       0.702     173.958

 Summary of Natural Population Analysis:

                                       Natural Population
                Natural  -----------------------------------------------
    Atom  No    Charge         Core      Valence    Rydberg      Total
 -----------------------------------------------------------------------
      O    1   -0.72101      1.99980     6.71352    0.00769     8.72101
      N    2   -0.52270      1.99932     5.50200    0.02138     7.52270
      C    3   -0.21991      1.99891     4.20226    0.01873     6.21991
      C    4    0.39911      1.99883     3.56237    0.03969     5.60089
      C    5   -0.16532      1.99906     4.15118    0.01508     6.16532
      C    6    0.12572      1.99906     3.84639    0.02882     5.87428
      C    7    0.16110      1.99902     3.81387    0.02601     5.83890
      C    8   -0.38244      1.99900     4.36228    0.02117     6.38244
      C    9   -0.17656      1.99906     4.16057    0.01694     6.17656
      C   10   -0.37317      1.99906     4.35727    0.01684     6.37317
      C   11   -0.17950      1.99906     4.16314    0.01731     6.17950
      C   12   -0.37134      1.99906     4.35538    0.01689     6.37134
      C   13   -0.17613      1.99905     4.16020    0.01687     6.17613
      C   14   -0.38851      1.99901     4.36975    0.01976     6.38851
      C   15   -0.37132      1.99899     4.35009    0.02225     6.37132
      C   16   -0.36859      1.99907     4.35274    0.01678     6.36859
      H   17    0.16094      0.00000     0.83493    0.00414     0.83906
      H   18    0.10802      0.00000     0.88376    0.00822     0.89198
      H   19    0.19137      0.00000     0.80329    0.00534     0.80863
      H   20    0.18753      0.00000     0.80906    0.00342     0.81247
      H   21    0.17351      0.00000     0.82191    0.00458     0.82649
      H   22    0.18432      0.00000     0.81179    0.00389     0.81568
      H   23    0.17597      0.00000     0.81996    0.00407     0.82403
      H   24    0.17460      0.00000     0.82108    0.00432     0.82540
      H   25    0.18377      0.00000     0.81240    0.00384     0.81623
      H   26    0.17535      0.00000     0.82059    0.00406     0.82465
      H   27    0.17330      0.00000     0.82202    0.00468     0.82670
      H   28    0.18666      0.00000     0.80977    0.00357     0.81334
      H   29    0.19101      0.00000     0.80412    0.00487     0.80899
      H   30    0.19312      0.00000     0.80211    0.00477     0.80688
      H   31    0.19104      0.00000     0.80437    0.00459     0.80896
      H   32    0.18125      0.00000     0.81503    0.00373     0.81875
      H   33    0.17566      0.00000     0.82046    0.00388     0.82434
      C   34   -0.26826      1.99900     4.24957    0.01969     6.26826
      C   35   -0.19687      1.99912     4.18326    0.01448     6.19687
      C   36   -0.30736      1.99908     4.29127    0.01702     6.30736
      H   37    0.17283      0.00000     0.82171    0.00545     0.82717
      H   38    0.15835      0.00000     0.83788    0.00377     0.84165
      H   39    0.16446      0.00000     0.83215    0.00338     0.83554
 =======================================================================
   * Total *   -1.00000     37.98255    99.55551    0.46194   138.00000

 ******   34 imaginary frequencies (negative Signs) ******

                      1                      2                      3
                      A                      A                      A
 Frequencies --  -1196.8759             -1150.2748             -1146.8024
 Red. masses --      1.0824                 1.0228                 1.0228
 Frc consts  --      0.9136                 0.7974                 0.7926
 IR Inten    --     63.2033                 0.7202                 2.2243

                      4                      5                      6
                      A                      A                      A
 Frequencies --  -1141.1194             -1138.7850             -1136.1048
 Red. masses --      1.0255                 1.0227                 1.0274
 Frc consts  --      0.7868                 0.7814                 0.7813
 IR Inten    --      1.2457                 1.2225                 1.6451

                      7                      8                      9
                      A                      A                      A
 Frequencies --  -1134.1110             -1121.0263             -1110.8928
 Red. masses --      1.0272                 1.0445                 1.0685
 Frc consts  --      0.7784                 0.7733                 0.7769
 IR Inten    --      0.0490                14.4772                 3.1665

                     10                     11                     12
                      A                      A                      A
 Frequencies --   -989.0860              -901.2119              -765.8249
 Red. masses --      1.0197                 1.0291                 1.1299
 Frc consts  --      0.5877                 0.4925                 0.3904
 IR Inten    --      0.1031                 0.2972                 0.0354

                     13                     14                     15
                      A                      A                      A
 Frequencies --   -748.4127              -735.6621              -702.3428
 Red. masses --      1.1393                 1.1285                 1.2461
 Frc consts  --      0.3760                 0.3598                 0.3622
 IR Inten    --      1.2611                 0.8577                15.4342

                     16                     17                     18
                      A                      A                      A
 Frequencies --   -687.6702              -680.8904              -661.7152
 Red. masses --      1.3020                 1.2862                 1.2721
 Frc consts  --      0.3628                 0.3513                 0.3282
 IR Inten    --      1.9663                 2.2403                 1.5486

                     19                     20                     21
                      A                      A                      A
 Frequencies --   -631.1237              -609.8228              -590.0265
 Red. masses --      1.2627                 1.0727                 1.2103
 Frc consts  --      0.2963                 0.2350                 0.2483
 IR Inten    --      2.2297                 0.5403                 0.3389

                     22                     23                     24
                      A                      A                      A
 Frequencies --   -586.4017              -572.7551              -544.9372
 Red. masses --      1.1797                 1.2178                 1.2421
 Frc consts  --      0.2390                 0.2354                 0.2173
 IR Inten    --      1.8361                 2.5180                 0.8485

                     25                     26                     27
                      A                      A                      A
 Frequencies --   -522.5580              -410.7268              -389.3733
 Red. masses --      1.1780                 1.0597                 1.3831
 Frc consts  --      0.1895                 0.1053                 0.1235
 IR Inten    --      2.0948                 0.3080                 5.7701

                     28                     29                     30
                      A                      A                      A
 Frequencies --   -378.3223              -361.5746              -346.1577
 Red. masses --      1.1459                 1.1003                 1.1056
 Frc consts  --      0.0966                 0.0848                 0.0781
 IR Inten    --      1.3667                 6.4637                 2.3613

                     31                     32                     33
                      A                      A                      A
 Frequencies --   -332.4020              -330.8560              -307.2251
 Red. masses --      1.1499                 1.1266                 1.2350
 Frc consts  --      0.0749                 0.0727                 0.0687
 IR Inten    --     16.4821                 1.5026                 1.9998

                     34                     35                     36
                      A                      A                      A
 Frequencies --    -38.4888               153.0126               251.4117
 Red. masses --      2.2115                 9.2869                 4.5666
 Frc consts  --      0.0019                 0.1281                 0.1701
 IR Inten    --      2.9648                 0.2928                 0.2621

                     37                     38                     39
                      A                      A                      A
 Frequencies --    255.2639               341.4523               396.2543
 Red. masses --      9.0848                 6.1197                 3.8713
 Frc consts  --      0.3488                 0.4204                 0.3581
 IR Inten    --      1.5278                 1.0125                 0.8726

                     40                     41                     42
                      A                      A                      A
 Frequencies --    401.6183               469.0478               471.5971
 Red. masses --      6.3984                 4.1673                 5.2680
 Frc consts  --      0.6081                 0.5402                 0.6903
 IR Inten    --      3.7560                 1.1261                 0.5537

                     43                     44                     45
                      A                      A                      A
 Frequencies --    515.5118               530.0065               616.3912
 Red. masses --      3.0432                 8.3614                 3.5185
 Frc consts  --      0.4765                 1.3839                 0.7876
 IR Inten    --      8.9847                 1.5112                21.3410

                     46                     47                     48
                      A                      A                      A
 Frequencies --    626.8477               647.1451               653.3398
 Red. masses --      9.3752                10.1805                 4.2845
 Frc consts  --      2.1705                 2.5120                 1.0775
 IR Inten    --      1.8393                 1.2951                14.2355

                     49                     50                     51
                      A                      A                      A
 Frequencies --    665.9095               673.7766               708.1732
 Red. masses --      3.2437                 3.2830                 2.8370
 Frc consts  --      0.8475                 0.8781                 0.8383
 IR Inten    --      1.9229                 4.4289                 0.5888

                     52                     53                     54
                      A                      A                      A
 Frequencies --    711.3442               747.3191               755.6275
 Red. masses --      2.7982                 3.8437                 3.6487
 Frc consts  --      0.8342                 1.2648                 1.2275
 IR Inten    --      0.4525                 1.3384                 0.1043

                     55                     56                     57
                      A                      A                      A
 Frequencies --    762.4829               766.8051               787.0746
 Red. masses --      3.9061                 4.0192                 4.1423
 Frc consts  --      1.3380                 1.3924                 1.5119
 IR Inten    --      0.8135                 0.2851                 1.1079

                     58                     59                     60
                      A                      A                      A
 Frequencies --    816.4128               844.6799               845.2734
 Red. masses --      3.5360                 8.1831                 2.3100
 Frc consts  --      1.3886                 3.4400                 0.9724
 IR Inten    --      2.6284                10.8680                 6.7138

                     61                     62                     63
                      A                      A                      A
 Frequencies --    846.2393               847.9143               849.0309
 Red. masses --      1.4032                 1.4690                 1.6656
 Frc consts  --      0.5920                 0.6223                 0.7074
 IR Inten    --      2.8874                 1.1633                 4.5237

                     64                     65                     66
                      A                      A                      A
 Frequencies --    856.3317               871.4929               902.4958
 Red. masses --      1.6243                 2.3449                 1.3751
 Frc consts  --      0.7018                 1.0493                 0.6599
 IR Inten    --      4.9278                20.7186                 3.7789

                     67                     68                     69
                      A                      A                      A
 Frequencies --    909.2089               913.0111               918.7804
 Red. masses --      1.4305                 1.5664                 1.9436
 Frc consts  --      0.6967                 0.7693                 0.9667
 IR Inten    --     12.1909                 9.5936                 0.8328

                     70                     71                     72
                      A                      A                      A
 Frequencies --    937.8610               984.4126              1030.4513
 Red. masses --      3.7889                 4.9762                 7.0093
 Frc consts  --      1.9635                 2.8412                 4.3851
 IR Inten    --      2.4433                16.3055                 4.6195

                     73                     74                     75
                      A                      A                      A
 Frequencies --   1032.9510              1050.9311              1130.0143
 Red. masses --      7.0614                 4.6654                 4.4993
 Frc consts  --      4.4391                 3.0359                 3.3850
 IR Inten    --      5.2881                 5.1807                94.9012

                     76                     77                     78
                      A                      A                      A
 Frequencies --   1184.7436              1198.6564              1206.3278
 Red. masses --      4.9069                 5.7573                 5.7515
 Frc consts  --      4.0579                 4.8737                 4.9313
 IR Inten    --      1.2062                12.2609                 2.4349

                     79                     80                     81
                      A                      A                      A
 Frequencies --   1232.8025              1233.7055              1243.9792
 Red. masses --      5.9397                 6.8010                 6.3228
 Frc consts  --      5.3187                 6.0988                 5.7648
 IR Inten    --      5.5254                29.7282                 3.3676

                     82                     83                     84
                      A                      A                      A
 Frequencies --   1262.6713              1274.9165              1282.2199
 Red. masses --      6.2104                 6.1624                 7.0846
 Frc consts  --      5.8338                 5.9016                 6.8627
 IR Inten    --      2.0032                 1.7854                42.3805

                     85                     86                     87
                      A                      A                      A
 Frequencies --   1317.2989              1427.8074              1454.3577
 Red. masses --      8.4286                 9.4038                 9.9359
 Frc consts  --      8.6173                11.2952                12.3823
 IR Inten    --     13.3052                97.0732               101.5730

                     88                     89                     90
                      A                      A                      A
 Frequencies --   1527.0652              1620.4802              1645.7465
 Red. masses --      9.6644                10.4224                11.3771
 Frc consts  --     13.2783                16.1252                18.1555
 IR Inten    --    188.7281               303.6150               504.8866

                     91                     92                     93
                      A                      A                      A
 Frequencies --   1699.0103              4518.8244              4526.4463
 Red. masses --     10.4932                 1.0587                 1.0588
 Frc consts  --     17.8464                12.7370                12.7817
 IR Inten    --     56.3059                30.5874                28.7121

                     94                     95                     96
                      A                      A                      A
 Frequencies --   4532.7119              4534.1399              4535.4475
 Red. masses --      1.0583                 1.0582                 1.0584
 Frc consts  --     12.8103                12.8172                12.8269
 IR Inten    --      8.9967                 9.7642                25.1343

                     97                     98                     99
                      A                      A                      A
 Frequencies --   4536.6837              4585.5808              4595.3007
 Red. masses --      1.0589                 1.0856                 1.0872
 Frc consts  --     12.8410                13.4492                13.5265
 IR Inten    --     14.7868                38.5639                39.9842

                    100                    101                    102
                      A                      A                      A
 Frequencies --   4597.0980              4600.3197              4610.7950
 Red. masses --      1.0874                 1.0875                 1.0857
 Frc consts  --     13.5399                13.5602                13.5995
 IR Inten    --     37.1289                35.5116                 3.2694

                    103                    104                    105
                      A                      A                      A
 Frequencies --   4623.3195              4638.5449              4643.1831
 Red. masses --      1.0887                 1.0907                 1.0916
 Frc consts  --     13.7109                13.8267                13.8654
 IR Inten    --     22.8744                23.8876                12.1897

                    106                    107                    108
                      A                      A                      A
 Frequencies --   4653.5206              4665.3319              4669.6974
 Red. masses --      1.1098                 1.1098                 1.1102
 Frc consts  --     14.1605                14.2319                14.2640
 IR Inten    --     15.2552                13.2960                13.6520

                    109                    110                    111
                      A                      A                      A
 Frequencies --   4670.3084              4671.5319              4672.3483
 Red. masses --      1.1103                 1.1106                 1.1108
 Frc consts  --     14.2686                14.2798                14.2879
 IR Inten    --      8.3377                 7.7473                11.3921

 - Thermochemistry -
 -------------------
 Temperature   298.150 Kelvin.  Pressure   1.00000 Atm.
 Atom     1 has atomic number  8 and mass  15.99491

 Molecular mass:   254.15449 amu.
 Principal axes and moments of inertia in atomic units:
                           1         2         3
     Eigenvalues --  1651.976439712.07698**********
           X            0.99999   0.00461   0.00005
           Y           -0.00461   0.99999  -0.00089
           Z           -0.00006   0.00089   1.00000
 This molecule is an asymmetric top.
 Rotational symmetry number  1.
 Warning -- assumption of classical behavior for rotation
           may cause significant error
 Rotational temperatures (Kelvin)      0.05243     0.00892     0.00839
 Rotational constants (GHZ):           1.09247     0.18582     0.17479
   34 imaginary frequencies ignored.
 Zero-point vibrational energy     857649.7 (Joules/Mol)
                                  204.98319 (Kcal/Mol)
 Warning -- explicit consideration of  11 degrees of freedom as
           vibrations may cause significant error
 Vibrational temperatures:    220.15   361.73   367.27   491.27   570.12
          (Kelvin)            577.84   674.86   678.52   741.71   762.56
                              886.85   901.89   931.10   940.01   958.10
                              969.41  1018.90  1023.47  1075.23  1087.18
                             1097.04  1103.26  1132.42  1174.64  1215.31
                             1216.16  1217.55  1219.96  1221.57  1232.07
                             1253.88  1298.49  1308.15  1313.62  1321.92
                             1349.37  1416.35  1482.59  1486.19  1512.06
                             1625.84  1704.58  1724.60  1735.64  1773.73
                             1775.03  1789.81  1816.70  1834.32  1844.83
                             1895.30  2054.30  2092.50  2197.11  2331.51
                             2367.86  2444.50  6501.58  6512.55  6521.56
                             6523.62  6525.50  6527.28  6597.63  6611.61
                             6614.20  6618.83  6633.91  6651.93  6673.83
                             6680.50  6695.38  6712.37  6718.65  6719.53
                             6721.29  6722.47

 Zero-point correction=                           0.326662 (Hartree/Particle)
 Thermal correction to Energy=                    0.335584
 Thermal correction to Enthalpy=                  0.336528
 Thermal correction to Gibbs Free Energy=         0.291524
 Sum of electronic and zero-point Energies=           -787.778518
 Sum of electronic and thermal Energies=              -787.769595
 Sum of electronic and thermal Enthalpies=            -787.768651
 Sum of electronic and thermal Free Energies=         -787.813655

                     E (Thermal)             CV                S
                      KCal/Mol        Cal/Mol-Kelvin    Cal/Mol-Kelvin
 Total                  210.582             42.571             94.719
 Electronic               0.000              0.000              0.000
 Translational            0.889              2.981             42.498
 Rotational               0.889              2.981             33.471
 Vibrational            208.805             36.609             18.750
 Vibration     1          0.619              1.899              2.634
 Vibration     2          0.663              1.760              1.721
 Vibration     3          0.666              1.754              1.694
 Vibration     4          0.721              1.593              1.205
 Vibration     5          0.763              1.478              0.977
 Vibration     6          0.767              1.467              0.957
 Vibration     7          0.826              1.319              0.740
 Vibration     8          0.829              1.313              0.733
 Vibration     9          0.871              1.216              0.620
 Vibration    10          0.885              1.184              0.587
 Vibration    11          0.976              0.997              0.422

 Normal termination of Gaussian 16 at Mon Mar  6 11:39:55 2023.
