 Gaussian 16, Revision C.01,
 Gaussian 16:  ES64L-G16RevC.01  3-Jul-2019

 ----------------------------------------------------------------------
 #p pop=(regular,nbo,savenbos) freq=noraman def2svp empiricaldispersion
 =gd3bj output=wfx pbe1pbe
 ----------------------------------------------------------------------

 ----------------------------------------
 DEHSIU_Complex_1_Ligand_1_ON_Cu_oriented
 ----------------------------------------
 Symbolic Z-matrix:
 Charge =  0 Multiplicity = 1

                         Standard orientation:
 ---------------------------------------------------------------------
 Center     Atomic      Atomic             Coordinates (Angstroms)
 Number     Number       Type             X           Y           Z
 ---------------------------------------------------------------------
      1          8           0       -1.652081   -1.467529    0.160595
      2          8           0       -1.804140    0.740948   -0.089557
      3          7           0        1.018754   -1.380182    0.664068
      4          6           0       -1.154223   -0.378724    0.213775
      5          6           0        0.269600   -0.114222    0.659139
      6          6           0       -3.223732    0.590785   -0.364409
      7          1           0       -3.609802    1.467168   -0.572895
      8          1           0       -3.670837    0.215631    0.422209
      9          1           0       -3.346833   -0.010258   -1.128744
     10          6           0        1.763764   -1.320873   -0.585409
     11          1           0        1.192022   -1.594233   -1.346005
     12          8           0        2.161637    0.031197   -0.722575
     13          6           0        1.073494    0.839874   -0.269215
     14          6           0        1.660387    2.056887    0.388034
     15          1           0        2.139320    2.590663   -0.280171
     16          1           0        2.283251    1.779258    1.092865
     17          1           0        0.942299    2.593297    0.782143
     18          1           0        0.507310    1.114114   -1.046124
     19          1           0        1.641625   -1.321898    1.352892
     20          1           0        0.257307    0.262751    1.585751
     21          1           0        2.553993   -1.914495   -0.549585
 ---------------------------------------------------------------------

 SCF Done:  E(RPBE1PBE) =  -514.622636074     A.U. after   13 cycles

 The electronic state is 1-A.
 Alpha  occ. eigenvalues --  -19.25887 -19.20272 -19.19046 -14.37373 -10.35110
 Alpha  occ. eigenvalues --  -10.27587 -10.27264 -10.26457 -10.26387 -10.19261
 Alpha  occ. eigenvalues --   -1.12930  -1.07064  -1.03147  -0.92228  -0.82494
 Alpha  occ. eigenvalues --   -0.78028  -0.73245  -0.67984  -0.63164  -0.59320
 Alpha  occ. eigenvalues --   -0.56187  -0.54171  -0.51913  -0.50432  -0.50225
 Alpha  occ. eigenvalues --   -0.48082  -0.45663  -0.43938  -0.43474  -0.42481
 Alpha  occ. eigenvalues --   -0.40760  -0.39687  -0.38643  -0.37468  -0.34383
 Alpha  occ. eigenvalues --   -0.32184  -0.28233  -0.27534  -0.26093
 Alpha virt. eigenvalues --    0.02009   0.07556   0.09549   0.09885   0.11515
 Alpha virt. eigenvalues --    0.12545   0.13535   0.14060   0.15579   0.16508
 Alpha virt. eigenvalues --    0.16910   0.17051   0.18288   0.19414   0.19908

 Mulliken charges:
               1
     1  O   -0.229171
     2  O   -0.365006
     3  N   -0.224180
     4  C    0.264224
     5  C   -0.081161
     6  C    0.317109
     7  H    0.003233
     8  H    0.004159
     9  H    0.007028
    10  C    0.421185
    11  H   -0.022131
    12  O   -0.449129
    13  C    0.124686
    14  C    0.182893
    15  H    0.001400
    16  H   -0.016926
    17  H   -0.007231
    18  H   -0.012184
    19  H    0.079475
    20  H    0.009323
    21  H   -0.007594
 Sum of Mulliken charges =  -0.00000

 Dipole moment (field-independent basis, Debye):
    X=             -0.7303    Y=              2.2659    Z=              0.5348  Tot=              2.4400
 Quadrupole moment (field-independent basis, Debye-Ang):
   XX=            -53.1325   YY=            -62.5167   ZZ=            -55.8085
   XY=             -7.2028   XZ=              4.2693   YZ=              1.8173

  Exact polarizability:      76.844      -2.378      72.433       1.628       1.091      55.231
 Approx polarizability:      91.332      -0.384     102.208       0.477      -0.183      77.247

 Summary of Natural Population Analysis:

                                       Natural Population
                Natural  -----------------------------------------------
    Atom  No    Charge         Core      Valence    Rydberg      Total
 -----------------------------------------------------------------------
      O    1   -0.59549      1.99971     6.58491    0.01087     8.59549
      O    2   -0.58225      1.99964     6.57280    0.00981     8.58225
      N    3   -0.67039      1.99942     5.65409    0.01687     7.67039
      C    4    0.84923      1.99931     3.09395    0.05751     5.15077
      C    5   -0.14159      1.99894     4.12059    0.02206     6.14159
      C    6   -0.15915      1.99894     4.14839    0.01182     6.15915
      H    7    0.17384      0.00000     0.82427    0.00189     0.82616
      H    8    0.17058      0.00000     0.82629    0.00314     0.82942
      H    9    0.17346      0.00000     0.82321    0.00332     0.82654
      C   10    0.19267      1.99916     3.78532    0.02285     5.80733
      H   11    0.14712      0.00000     0.84822    0.00466     0.85288
      O   12   -0.63189      1.99974     6.62147    0.01068     8.63189
      C   13    0.15215      1.99901     3.82744    0.02140     5.84785
      C   14   -0.57189      1.99915     4.56311    0.00963     6.57189
      H   15    0.20365      0.00000     0.79342    0.00293     0.79635
      H   16    0.19147      0.00000     0.80395    0.00458     0.80853
      H   17    0.19488      0.00000     0.80229    0.00282     0.80512
      H   18    0.16974      0.00000     0.82511    0.00515     0.83026
      H   19    0.34377      0.00000     0.64980    0.00643     0.65623
      H   20    0.21901      0.00000     0.77744    0.00356     0.78099
      H   21    0.17110      0.00000     0.82643    0.00247     0.82890
 =======================================================================
   * Total *   -0.00000     19.99304    57.77251    0.23445    78.00000

 ******   11 imaginary frequencies (negative Signs) ******

                      1                      2                      3
                      A                      A                      A
 Frequencies --  -1250.5450             -1222.5900              -892.9995
 Red. masses --      1.0145                 1.0138                 1.1058
 Frc consts  --      0.9348                 0.8928                 0.5196
 IR Inten    --      0.0801                 0.0200               122.3945

                      4                      5                      6
                      A                      A                      A
 Frequencies --   -834.4695              -799.8200              -794.9981
 Red. masses --      1.0760                 1.0941                 1.1098
 Frc consts  --      0.4415                 0.4124                 0.4133
 IR Inten    --      2.5743                 1.3210                 2.6672

                      7                      8                      9
                      A                      A                      A
 Frequencies --   -657.6303              -655.7400              -339.0323
 Red. masses --      1.1603                 1.2837                 2.3841
 Frc consts  --      0.2956                 0.3252                 0.1615
 IR Inten    --      4.4459                 3.9672                 4.7131

                     10                     11                     12
                      A                      A                      A
 Frequencies --   -168.1779               -26.5265               145.4919
 Red. masses --      3.9500                 3.3501                 4.0177
 Frc consts  --      0.0658                 0.0014                 0.0501
 IR Inten    --      1.4246                 1.4315                 0.9921

                     13                     14                     15
                      A                      A                      A
 Frequencies --    333.5575               367.1158               451.8459
 Red. masses --      2.3507                 2.0213                 5.6052
 Frc consts  --      0.1541                 0.1605                 0.6743
 IR Inten    --      1.5670                 6.1679                12.0704

                     16                     17                     18
                      A                      A                      A
 Frequencies --    510.4869               551.4057               592.8687
 Red. masses --      2.4853                 5.2056                 1.7105
 Frc consts  --      0.3816                 0.9325                 0.3542
 IR Inten    --      8.1538                 9.0009                25.2473

                     19                     20                     21
                      A                      A                      A
 Frequencies --    618.8469               684.6911               691.7827
 Red. masses --      2.7250                 2.9620                 2.6368
 Frc consts  --      0.6149                 0.8181                 0.7435
 IR Inten    --      1.3105                 3.8633                 0.5782

                     22                     23                     24
                      A                      A                      A
 Frequencies --    748.0642               785.0023               807.8649
 Red. masses --      1.2652                 1.9383                 2.4089
 Frc consts  --      0.4171                 0.7037                 0.9263
 IR Inten    --     19.6600                32.6448                 4.3820

                     25                     26                     27
                      A                      A                      A
 Frequencies --    832.4438               874.5558               876.6276
 Red. masses --      2.2315                 1.6001                 1.9925
 Frc consts  --      0.9111                 0.7211                 0.9022
 IR Inten    --     51.4658                14.6012                10.8487

                     28                     29                     30
                      A                      A                      A
 Frequencies --    925.2380               947.6528               971.9020
 Red. masses --      3.8919                 2.5251                 1.5257
 Frc consts  --      1.9630                 1.3361                 0.8491
 IR Inten    --     26.1171                 3.2315                 3.3367

                     31                     32                     33
                      A                      A                      A
 Frequencies --    981.6181              1030.6623              1053.2517
 Red. masses --      2.5979                 2.1755                 2.6795
 Frc consts  --      1.4749                 1.3616                 1.7513
 IR Inten    --     10.8604                11.1549                49.2992

                     34                     35                     36
                      A                      A                      A
 Frequencies --   1062.5557              1103.6073              1112.9758
 Red. masses --      2.2214                 2.8385                 2.6415
 Frc consts  --      1.4777                 2.0369                 1.9279
 IR Inten    --     14.6589                12.5528                58.7374

                     37                     38                     39
                      A                      A                      A
 Frequencies --   1145.3378              1148.1311              1154.3375
 Red. masses --      1.8021                 1.3141                 1.3427
 Frc consts  --      1.3928                 1.0206                 1.0541
 IR Inten    --     15.2677                40.2561                 6.0464

                     40                     41                     42
                      A                      A                      A
 Frequencies --   1162.6059              1170.4037              1198.6928
 Red. masses --      1.3176                 1.5110                 2.2959
 Frc consts  --      1.0493                 1.2195                 1.9436
 IR Inten    --      5.5631                 9.5787                48.6516

                     43                     44                     45
                      A                      A                      A
 Frequencies --   1208.0807              1253.7468              1386.7485
 Red. masses --      1.5029                 5.9596                 9.1000
 Frc consts  --      1.2923                 5.5193                10.3107
 IR Inten    --     14.7089                38.7734               322.1663

                     46                     47                     48
                      A                      A                      A
 Frequencies --   1905.9204              4132.3373              4135.2264
 Red. masses --     12.6898                 1.0883                 1.0873
 Frc consts  --     27.1591                10.9490                10.9549
 IR Inten    --    250.1094                11.7903                 5.5348

                     49                     50                     51
                      A                      A                      A
 Frequencies --   4200.6553              4239.6637              4252.2682
 Red. masses --      1.0596                 1.0329                 1.0310
 Frc consts  --     11.0156                10.9389                10.9836
 IR Inten    --     30.8002                 5.0020                13.7274

                     52                     53                     54
                      A                      A                      A
 Frequencies --   4321.2765              4428.1586              4438.0947
 Red. masses --      1.1125                 1.1068                 1.1064
 Frc consts  --     12.2394                12.7866                12.8397
 IR Inten    --      8.8614                 2.4367                 2.1660

                     55                     56                     57
                      A                      A                      A
 Frequencies --   4444.1529              4448.5489              4708.0518
 Red. masses --      1.1083                 1.1085                 1.0756
 Frc consts  --     12.8970                12.9253                14.0468
 IR Inten    --      0.9764                 1.1536                 9.9641

 - Thermochemistry -
 -------------------
 Temperature   298.150 Kelvin.  Pressure   1.00000 Atm.
 Atom     1 has atomic number  8 and mass  15.99491

 Molecular mass:   145.07389 amu.
 Principal axes and moments of inertia in atomic units:
                           1         2         3
     Eigenvalues --   802.327011825.080992339.10548
           X            0.99987  -0.00839   0.01374
           Y            0.00809   0.99973   0.02172
           Z           -0.01392  -0.02160   0.99967
 This molecule is an asymmetric top.
 Rotational symmetry number  1.
 Warning -- assumption of classical behavior for rotation
           may cause significant error
 Rotational temperatures (Kelvin)      0.10795     0.04746     0.03703
 Rotational constants (GHZ):           2.24938     0.98886     0.77155
   11 imaginary frequencies ignored.
 Zero-point vibrational energy     475782.1 (Joules/Mol)
                                  113.71465 (Kcal/Mol)
 Warning -- explicit consideration of   8 degrees of freedom as
           vibrations may cause significant error
 Vibrational temperatures:    209.33   479.91   528.20   650.11   734.48
          (Kelvin)            793.35   853.01   890.38   985.12   995.32
                             1076.30  1129.44  1162.34  1197.70  1258.29
                             1261.27  1331.21  1363.46  1398.35  1412.33
                             1482.89  1515.39  1528.78  1587.84  1601.32
                             1647.89  1651.90  1660.83  1672.73  1683.95
                             1724.65  1738.16  1803.86  1995.22  2742.19
                             5945.51  5949.67  6043.81  6099.93  6118.07
                             6217.35  6371.13  6385.43  6394.14  6400.47
                             6773.84

 Zero-point correction=                           0.181216 (Hartree/Particle)
 Thermal correction to Energy=                    0.187550
 Thermal correction to Enthalpy=                  0.188494
 Thermal correction to Gibbs Free Energy=         0.149846
 Sum of electronic and zero-point Energies=           -514.441420
 Sum of electronic and thermal Energies=              -514.435086
 Sum of electronic and thermal Enthalpies=            -514.434142
 Sum of electronic and thermal Free Energies=         -514.472790

                     E (Thermal)             CV                S
                      KCal/Mol        Cal/Mol-Kelvin    Cal/Mol-Kelvin
 Total                  117.689             27.322             81.341
 Electronic               0.000              0.000              0.000
 Translational            0.889              2.981             40.827
 Rotational               0.889              2.981             29.617
 Vibrational            115.912             21.361             10.897
 Vibration     1          0.617              1.908              2.730
 Vibration     2          0.715              1.608              1.243
 Vibration     3          0.740              1.540              1.092
 Vibration     4          0.811              1.357              0.790
 Vibration     5          0.866              1.227              0.632
 Vibration     6          0.907              1.137              0.541
 Vibration     7          0.950              1.047              0.462
 Vibration     8          0.979              0.992              0.418

 Normal termination of Gaussian 16 at Sat Mar  4 11:32:20 2023.
