 Gaussian 16, Revision C.01,
 Gaussian 16:  ES64L-G16RevC.01  3-Jul-2019

 ----------------------------------------------------------------------
 #p pop=(regular,nbo,savenbos) freq=noraman def2svp empiricaldispersion
 =gd3bj output=wfx pbe1pbe
 ----------------------------------------------------------------------

 ----------------------------------------
 DILGIO_Complex_1_Ligand_0_NN_Cu_oriented
 ----------------------------------------
 Symbolic Z-matrix:
 Charge = -1 Multiplicity = 1

                         Standard orientation:
 ---------------------------------------------------------------------
 Center     Atomic      Atomic             Coordinates (Angstroms)
 Number     Number       Type             X           Y           Z
 ---------------------------------------------------------------------
      1          7           0       -1.499729    1.598162    0.980999
      2          1           0       -0.555776    1.560541    1.283863
      3          1           0       -1.652146    2.463816    0.910970
      4          6           0       -1.690852    0.852288   -0.280127
      5          6           0       -0.486846    0.828577   -1.188390
      6          1           0       -2.464840    1.447233   -0.699075
      7          1           0       -0.690880    0.292437   -1.894356
      8          1           0       -0.356874    1.689753   -1.446188
      9          7           0       -2.643229   -0.706121    1.249317
     10          6           0       -2.234943   -0.549795    0.042873
     11          1           0       -3.337306   -1.161524    1.725193
     12          6           0        0.776362    0.301639   -0.581740
     13          6           0        3.165350   -0.623723    0.513268
     14          6           0        3.000486    0.700300    0.264825
     15          6           0        1.845428    1.140256   -0.280840
     16          1           0        3.721993    1.242911    0.600014
     17          1           0        4.099018   -0.984750    0.915900
     18          1           0        1.511619    2.164697   -0.425521
     19          6           0        0.954866   -1.052058   -0.310382
     20          6           0        2.118714   -1.521597    0.237504
     21          1           0        0.211937   -1.691954   -0.623770
     22          1           0        2.229854   -2.573345    0.460866
     23          8           0       -2.300911   -1.393678   -0.865256
 ---------------------------------------------------------------------

 SCF Done:  E(RPBE1PBE) =  -533.175168002     A.U. after   19 cycles

 The electronic state is 1-A.
 Alpha  occ. eigenvalues --  -18.91468 -14.17915 -14.07541 -10.11570 -10.11344
 Alpha  occ. eigenvalues --  -10.10938 -10.10850 -10.10453 -10.09175 -10.07671
 Alpha  occ. eigenvalues --  -10.06958 -10.04550  -0.79080  -0.76628  -0.74596
 Alpha  occ. eigenvalues --   -0.67723  -0.64806  -0.61096  -0.60562  -0.51235
 Alpha  occ. eigenvalues --   -0.50407  -0.47300  -0.42167  -0.38027  -0.36620
 Alpha  occ. eigenvalues --   -0.34744  -0.34711  -0.31774  -0.31468  -0.30140
 Alpha  occ. eigenvalues --   -0.28640  -0.25831  -0.25392  -0.23916  -0.21985
 Alpha  occ. eigenvalues --   -0.21271  -0.19505  -0.15243  -0.14387  -0.13502
 Alpha  occ. eigenvalues --   -0.08147  -0.03316  -0.00216   0.03063
 Alpha virt. eigenvalues --    0.11958   0.12333   0.18444   0.20515   0.23204
 Alpha virt. eigenvalues --    0.24356   0.26174   0.26338   0.27851   0.29688
 Alpha virt. eigenvalues --    0.30436   0.30980   0.32488   0.33148   0.34454

 Mulliken charges:
               1
     1  N   -0.109454
     2  H    0.044332
     3  H    0.000140
     4  C   -0.064814
     5  C    0.448543
     6  H   -0.025401
     7  H   -0.091686
     8  H   -0.141852
     9  N   -0.327256
    10  C   -0.006574
    11  H    0.014562
    12  C   -0.217607
    13  C   -0.039120
    14  C    0.071950
    15  C    0.005277
    16  H   -0.094537
    17  H   -0.025895
    18  H   -0.032022
    19  C    0.062157
    20  C   -0.008383
    21  H   -0.012402
    22  H   -0.013476
    23  O   -0.436483
 Sum of Mulliken charges =  -1.00000

 Dipole moment (field-independent basis, Debye):
    X=              8.1432    Y=              4.1093    Z=             -0.8937  Tot=              9.1649
 Quadrupole moment (field-independent basis, Debye-Ang):
   XX=            -99.3521   YY=            -75.3256   ZZ=            -82.1855
   XY=             -9.4007   XZ=              4.3096   YZ=             -4.0495

  Exact polarizability:     130.992      -1.131     107.221       5.608      -5.646      80.990
 Approx polarizability:     175.601       1.351     165.691      13.608      -6.447     132.080

 Summary of Natural Population Analysis:

                                       Natural Population
                Natural  -----------------------------------------------
    Atom  No    Charge         Core      Valence    Rydberg      Total
 -----------------------------------------------------------------------
      N    1   -0.80316      1.99939     5.78326    0.02051     7.80316
      H    2    0.32646      0.00000     0.66661    0.00693     0.67354
      H    3    0.29413      0.00000     0.69849    0.00737     0.70587
      C    4   -0.07813      1.99906     4.05486    0.02421     6.07813
      C    5   -0.38182      1.99878     4.36190    0.02115     6.38182
      H    6    0.20049      0.00000     0.79556    0.00396     0.79951
      H    7    0.19575      0.00000     0.79447    0.00979     0.80425
      H    8    0.15875      0.00000     0.83574    0.00551     0.84125
      N    9   -0.93610      1.99919     5.92081    0.01610     7.93610
      C   10    0.59910      1.99915     3.34125    0.06051     5.40090
      H   11    0.32770      0.00000     0.66587    0.00644     0.67230
      C   12    0.00967      1.99894     3.97181    0.01957     5.99033
      C   13   -0.23623      1.99901     4.22178    0.01544     6.23623
      C   14   -0.22692      1.99892     4.21294    0.01506     6.22692
      C   15   -0.24764      1.99888     4.23268    0.01608     6.24764
      H   16    0.18174      0.00000     0.81484    0.00342     0.81826
      H   17    0.20197      0.00000     0.79500    0.00302     0.79803
      H   18    0.20775      0.00000     0.78756    0.00469     0.79225
      C   19   -0.19406      1.99888     4.17874    0.01644     6.19406
      C   20   -0.22865      1.99897     4.21473    0.01494     6.22865
      H   21    0.24029      0.00000     0.75210    0.00761     0.75971
      H   22    0.21255      0.00000     0.78446    0.00299     0.78745
      O   23   -0.82362      1.99974     6.81421    0.00967     8.82362
 =======================================================================
   * Total *   -1.00000     23.98892    63.69967    0.31141    88.00000

 ******   13 imaginary frequencies (negative Signs) ******

                      1                      2                      3
                      A                      A                      A
 Frequencies --  -1663.9317             -1633.2667             -1263.6952
 Red. masses --      1.0755                 1.0361                 1.1449
 Frc consts  --      1.7545                 1.6285                 1.0772
 IR Inten    --    109.4866                 7.2352                14.5668

                      4                      5                      6
                      A                      A                      A
 Frequencies --  -1155.1723             -1119.6854             -1076.6644
 Red. masses --      1.0837                 1.0622                 1.0930
 Frc consts  --      0.8520                 0.7846                 0.7465
 IR Inten    --     30.8688                10.1789               107.2645

                      7                      8                      9
                      A                      A                      A
 Frequencies --  -1017.7051              -728.6694              -656.6695
 Red. masses --      1.0534                 1.1109                 1.1704
 Frc consts  --      0.6428                 0.3475                 0.2974
 IR Inten    --     21.9043               152.4822                28.2122

                     10                     11                     12
                      A                      A                      A
 Frequencies --   -346.9733              -197.3411              -151.0974
 Red. masses --      1.5250                 4.4160                 3.1718
 Frc consts  --      0.1082                 0.1013                 0.0427
 IR Inten    --      3.7939                 2.0168                 6.5181

                     13                     14                     15
                      A                      A                      A
 Frequencies --   -117.3358               127.3734               188.5196
 Red. masses --      3.1491                 5.4908                 3.2915
 Frc consts  --      0.0255                 0.0525                 0.0689
 IR Inten    --     10.7650                18.0310                 5.3813

                     16                     17                     18
                      A                      A                      A
 Frequencies --    320.9108               368.2473               375.9847
 Red. masses --      4.2567                 3.2388                 1.9105
 Frc consts  --      0.2583                 0.2588                 0.1591
 IR Inten    --      6.1922                 0.3365                38.9332

                     19                     20                     21
                      A                      A                      A
 Frequencies --    421.2072               455.1539               535.9778
 Red. masses --      4.7179                 3.0219                 3.7901
 Frc consts  --      0.4932                 0.3688                 0.6415
 IR Inten    --      4.0954                 1.3888                11.0312

                     22                     23                     24
                      A                      A                      A
 Frequencies --    567.6525               595.0247               609.2433
 Red. masses --      2.7071                 2.6704                 2.5792
 Frc consts  --      0.5140                 0.5571                 0.5640
 IR Inten    --      1.1549                11.8344                21.5028

                     25                     26                     27
                      A                      A                      A
 Frequencies --    637.9891               661.5115               711.9967
 Red. masses --      3.9484                 3.9328                 3.8240
 Frc consts  --      0.9469                 1.0140                 1.1421
 IR Inten    --      6.4623                 4.5605                 7.6951

                     28                     29                     30
                      A                      A                      A
 Frequencies --    783.1960               829.0944               830.3304
 Red. masses --      2.1384                 2.0283                 1.9983
 Frc consts  --      0.7728                 0.8215                 0.8117
 IR Inten    --      7.9648                 2.8159                 8.2321

                     31                     32                     33
                      A                      A                      A
 Frequencies --    855.6108               907.3923               944.8501
 Red. masses --      3.7708                 2.5134                 1.4464
 Frc consts  --      1.6264                 1.2193                 0.7608
 IR Inten    --     19.0841                 8.2518                 0.1072

                     34                     35                     36
                      A                      A                      A
 Frequencies --    983.9846              1024.2677              1036.9259
 Red. masses --      3.1615                 2.4992                 1.5001
 Frc consts  --      1.8035                 1.5448                 0.9503
 IR Inten    --      6.7111                 6.7415                 9.4003

                     37                     38                     39
                      A                      A                      A
 Frequencies --   1057.2835              1092.4032              1146.0449
 Red. masses --      2.3756                 1.3797                 3.5217
 Frc consts  --      1.5646                 0.9700                 2.7253
 IR Inten    --      1.1025                 6.8210                22.0337

                     40                     41                     42
                      A                      A                      A
 Frequencies --   1148.3627              1222.9194              1231.0448
 Red. masses --      1.3292                 1.7958                 2.2636
 Frc consts  --      1.0328                 1.5823                 2.0212
 IR Inten    --     15.2612                 1.8222                34.9939

                     43                     44                     45
                      A                      A                      A
 Frequencies --   1275.5343              1286.9747              1449.1691
 Red. masses --      2.5744                 1.3123                 1.2250
 Frc consts  --      2.4678                 1.2806                 1.5157
 IR Inten    --      3.3984                 1.2164                23.4353

                     46                     47                     48
                      A                      A                      A
 Frequencies --   1458.1139              1499.0325              1521.0678
 Red. masses --      4.9607                 6.5772                 6.6191
 Frc consts  --      6.2141                 8.7079                 9.0229
 IR Inten    --      8.4993               127.9555                15.3236

                     49                     50                     51
                      A                      A                      A
 Frequencies --   1555.9884              1710.0182              1783.7514
 Red. masses --      3.6833                 7.4724                 8.3855
 Frc consts  --      5.2541                12.8739                15.7199
 IR Inten    --      7.8917                 0.4008                12.1317

                     52                     53                     54
                      A                      A                      A
 Frequencies --   1815.1863              3242.2056              3311.9571
 Red. masses --     10.7737                 1.0917                 1.0894
 Frc consts  --     20.9149                 6.7617                 7.0407
 IR Inten    --    495.5789                25.3251                10.7986

                     55                     56                     57
                      A                      A                      A
 Frequencies --   3333.3564              3450.6850              3835.0448
 Red. masses --      1.0955                 1.0862                 1.0927
 Frc consts  --      7.1719                 7.6204                 9.4690
 IR Inten    --     37.5023                58.3402                10.7432

                     58                     59                     60
                      A                      A                      A
 Frequencies --   3882.1035              4347.6498              4593.5520
 Red. masses --      1.0679                 1.0830                 1.0901
 Frc consts  --      9.4823                12.0606                13.5527
 IR Inten    --      2.7017                 7.9394                 6.8804

                     61                     62                     63
                      A                      A                      A
 Frequencies --   5195.2730              5375.4907              5465.7599
 Red. masses --      1.0558                 1.1121                 1.0749
 Frc consts  --     16.7901                18.9328                18.9196
 IR Inten    --     13.1110                 4.5194                 4.8065

 - Thermochemistry -
 -------------------
 Temperature   298.150 Kelvin.  Pressure   1.00000 Atm.
 Atom     1 has atomic number  7 and mass  14.00307

 Molecular mass:   163.08714 amu.
 Principal axes and moments of inertia in atomic units:
                           1         2         3
     Eigenvalues --  1014.423462861.503613235.42091
           X            0.99989  -0.01443   0.00329
           Y            0.01452   0.99950  -0.02815
           Z           -0.00288   0.02819   0.99960
 This molecule is an asymmetric top.
 Rotational symmetry number  1.
 Warning -- assumption of classical behavior for rotation
           may cause significant error
 Rotational temperatures (Kelvin)      0.08538     0.03027     0.02677
 Rotational constants (GHZ):           1.77908     0.63070     0.55781
   13 imaginary frequencies ignored.
 Zero-point vibrational energy     496799.7 (Joules/Mol)
                                  118.73797 (Kcal/Mol)
 Warning -- explicit consideration of  11 degrees of freedom as
           vibrations may cause significant error
 Vibrational temperatures:    183.26   271.24   461.72   529.83   540.96
          (Kelvin)            606.02   654.86   771.15   816.73   856.11
                              876.57   917.92   951.77  1024.40  1126.84
                             1192.88  1194.66  1231.03  1305.54  1359.43
                             1415.73  1473.69  1491.91  1521.20  1571.72
                             1648.90  1652.24  1759.51  1771.20  1835.21
                             1851.67  2085.03  2097.90  2156.77  2188.48
                             2238.72  2460.33  2566.42  2611.65  4664.81
                             4765.17  4795.96  4964.77  5517.77  5585.48
                             6255.30  6609.10  7474.84  7734.13  7864.01

 Zero-point correction=                           0.189221 (Hartree/Particle)
 Thermal correction to Energy=                    0.196678
 Thermal correction to Enthalpy=                  0.197622
 Thermal correction to Gibbs Free Energy=         0.156347
 Sum of electronic and zero-point Energies=           -532.985947
 Sum of electronic and thermal Energies=              -532.978490
 Sum of electronic and thermal Enthalpies=            -532.977546
 Sum of electronic and thermal Free Energies=         -533.018821

                     E (Thermal)             CV                S
                      KCal/Mol        Cal/Mol-Kelvin    Cal/Mol-Kelvin
 Total                  123.417             30.912             86.870
 Electronic               0.000              0.000              0.000
 Translational            0.889              2.981             41.176
 Rotational               0.889              2.981             30.619
 Vibrational            121.640             24.951             15.075
 Vibration     1          0.611              1.926              2.985
 Vibration     2          0.633              1.856              2.242
 Vibration     3          0.706              1.634              1.305
 Vibration     4          0.741              1.538              1.087
 Vibration     5          0.747              1.521              1.055
 Vibration     6          0.784              1.424              0.888
 Vibration     7          0.813              1.349              0.780
 Vibration     8          0.891              1.170              0.574
 Vibration     9          0.924              1.101              0.509
 Vibration    10          0.953              1.042              0.458
 Vibration    11          0.968              1.012              0.434

 Normal termination of Gaussian 16 at Mon Mar  6 10:39:49 2023.
