 Gaussian 16, Revision C.01,
 Gaussian 16:  ES64L-G16RevC.01  3-Jul-2019

 ----------------------------------------------------------------------
 #p pop=(regular,nbo,savenbos) freq=noraman def2svp empiricaldispersion
 =gd3bj output=wfx pbe1pbe
 ----------------------------------------------------------------------

 ----------------------------------------
 DIPPAV_Complex_4_Ligand_2_OO_Cu_oriented
 ----------------------------------------
 Symbolic Z-matrix:
 Charge = -2 Multiplicity = 1

                         Standard orientation:
 ---------------------------------------------------------------------
 Center     Atomic      Atomic             Coordinates (Angstroms)
 Number     Number       Type             X           Y           Z
 ---------------------------------------------------------------------
      1          8           0       -1.669954   -1.523883   -0.312971
      2          8           0        1.191979   -1.561692   -0.524134
      3          8           0        2.205987    0.738711   -0.390608
      4          1           0        2.242206    0.709528   -1.209444
      5         15           0        1.045620   -0.198098    0.118983
      6          8           0        1.046418   -0.163128    1.610053
      7          6           0       -0.488697    0.539113   -0.537914
      8          1           0       -0.444030    0.517672   -1.516683
      9          6           0       -1.709944   -0.259408   -0.098697
     10          8           0       -2.675976    0.312735    0.416330
     11          8           0       -0.610688    1.907084   -0.123570
     12          1           0       -0.192766    2.387434   -0.639743
 ---------------------------------------------------------------------

 SCF Done:  E(RPBE1PBE) =  -869.451748160     A.U. after   15 cycles

 The electronic state is 1-A.
 Alpha  occ. eigenvalues --  -76.92501 -18.90465 -18.88128 -18.78136 -18.77276
 Alpha  occ. eigenvalues --  -18.76856 -18.76338  -9.94758  -9.92613  -6.32058
 Alpha  occ. eigenvalues --   -4.46378  -4.45996  -4.45978  -0.79593  -0.75691
 Alpha  occ. eigenvalues --   -0.66867  -0.61385  -0.56494  -0.55242  -0.41148
 Alpha  occ. eigenvalues --   -0.31056  -0.23744  -0.19258  -0.17648  -0.12983
 Alpha  occ. eigenvalues --   -0.09238  -0.07935  -0.05102  -0.04859  -0.03497
 Alpha  occ. eigenvalues --   -0.02684  -0.00326   0.01558   0.05216   0.08308
 Alpha  occ. eigenvalues --    0.08591   0.10242   0.11135   0.11571   0.14139
 Alpha virt. eigenvalues --    0.33252   0.38972   0.41655   0.44344   0.49352
 Alpha virt. eigenvalues --    0.52890   0.54990   0.57831   0.60329   0.61929
 Alpha virt. eigenvalues --    0.69890   0.70622   0.78883   0.86436   0.88719

 Mulliken charges:
               1
     1  O   -0.483868
     2  O   -0.657028
     3  O   -0.308521
     4  H    0.038483
     5  P    0.769001
     6  O   -0.652849
     7  C   -0.043822
     8  H   -0.087106
     9  C    0.090810
    10  O   -0.441548
    11  O   -0.258391
    12  H    0.034838
 Sum of Mulliken charges =  -2.00000

 Dipole moment (field-independent basis, Debye):
    X=              4.8083    Y=              6.0868    Z=             -5.1059  Tot=              9.2865
 Quadrupole moment (field-independent basis, Debye-Ang):
   XX=            -96.1864   YY=            -77.1173   ZZ=            -65.9611
   XY=              2.0490   XZ=             -2.7258   YZ=             -7.1663

  Exact polarizability:      56.433      -0.421      54.824      -3.777       0.033      46.340
 Approx polarizability:      71.315      -4.436      86.125      -7.692       5.441      69.184

 Summary of Natural Population Analysis:

                                       Natural Population
                Natural  -----------------------------------------------
    Atom  No    Charge         Core      Valence    Rydberg      Total
 -----------------------------------------------------------------------
      O    1   -0.81214      1.99977     6.80356    0.00881     8.81214
      O    2   -1.16859      1.99983     7.16299    0.00577     9.16859
      O    3   -0.99032      1.99970     6.97189    0.01874     8.99032
      H    4    0.41746      0.00000     0.57135    0.01119     0.58254
      P    5    2.29060      9.99889     2.54413    0.16638    12.70940
      O    6   -1.17323      1.99982     7.16735    0.00607     9.17323
      C    7   -0.35183      1.99877     4.31772    0.03534     6.35183
      H    8    0.14514      0.00000     0.84762    0.00723     0.85486
      C    9    0.77438      1.99948     3.15175    0.07439     5.22562
      O   10   -0.79495      1.99973     6.78513    0.01009     8.79495
      O   11   -0.72469      1.99969     6.70264    0.02236     8.72469
      H   12    0.38817      0.00000     0.60208    0.00975     0.61183
 =======================================================================
   * Total *   -2.00000     25.99567    53.62821    0.37611    80.00000

 ******    7 imaginary frequencies (negative Signs) ******

                      1                      2                      3
                      A                      A                      A
 Frequencies --  -2129.4943             -2071.7737             -1752.1379
 Red. masses --      1.0728                 1.0677                 1.0680
 Frc consts  --      2.8662                 2.7001                 1.9318
 IR Inten    --    136.9261               107.7021               189.1731

                      4                      5                      6
                      A                      A                      A
 Frequencies --  -1617.8842              -617.0748              -347.4478
 Red. masses --      1.0928                 1.1598                 2.1913
 Frc consts  --      1.6854                 0.2602                 0.1559
 IR Inten    --    110.8746                 6.0344                 9.3397

                      7                      8                      9
                      A                      A                      A
 Frequencies --    -80.6660               122.2937               131.2670
 Red. masses --     15.0093                10.3385                10.5069
 Frc consts  --      0.0575                 0.0911                 0.1067
 IR Inten    --      0.7292                 0.0666                 1.3099

                     10                     11                     12
                      A                      A                      A
 Frequencies --    241.8714               322.5932               339.7740
 Red. masses --     13.0569                12.7064                 8.0977
 Frc consts  --      0.4501                 0.7791                 0.5508
 IR Inten    --      1.4966                 1.0858                 1.9414

                     13                     14                     15
                      A                      A                      A
 Frequencies --    424.0273               462.8069               514.0238
 Red. masses --      6.4717                13.1446                 8.1208
 Frc consts  --      0.6856                 1.6588                 1.2642
 IR Inten    --     14.4921                38.3408                62.9800

                     16                     17                     18
                      A                      A                      A
 Frequencies --    566.0702               590.2377               809.1309
 Red. masses --      9.5496                 5.7041                11.2069
 Frc consts  --      1.8029                 1.1708                 4.3229
 IR Inten    --     19.8113                93.6230                26.6532

                     19                     20                     21
                      A                      A                      A
 Frequencies --    821.1343               931.7267               998.9363
 Red. masses --      3.1671                 8.6278                 7.8605
 Frc consts  --      1.2582                 4.4130                 4.6214
 IR Inten    --      5.7864                 5.1976               112.3902

                     22                     23                     24
                      A                      A                      A
 Frequencies --   1042.3563              1111.0436              1155.4183
 Red. masses --     10.6098                 7.7320                17.6588
 Frc consts  --      6.7919                 5.6234                13.8896
 IR Inten    --     98.1707                96.6035               142.0943

                     25                     26                     27
                      A                      A                      A
 Frequencies --   1316.5722              1410.0465              1765.3724
 Red. masses --     19.0075                13.0594                12.8420
 Frc consts  --     19.4117                15.2982                23.5807
 IR Inten    --    269.0303               240.2730               464.8265

                     28                     29                     30
                      A                      A                      A
 Frequencies --   4345.0095              6299.0672              6302.1243
 Red. masses --      1.0860                 1.0672                 1.0664
 Frc consts  --     12.0796                24.9478                24.9553
 IR Inten    --     44.0964                10.7592                35.3048

 - Thermochemistry -
 -------------------
 Temperature   298.150 Kelvin.  Pressure   1.00000 Atm.
 Atom     1 has atomic number  8 and mass  15.99491

 Molecular mass:   153.96673 amu.
 Principal axes and moments of inertia in atomic units:
                           1         2         3
     Eigenvalues --   778.496371504.268061847.70184
           X            0.99996   0.00513  -0.00692
           Y           -0.00535   0.99943  -0.03341
           Z            0.00674   0.03345   0.99942
 This molecule is an asymmetric top.
 Rotational symmetry number  1.
 Warning -- assumption of classical behavior for rotation
           may cause significant error
 Rotational temperatures (Kelvin)      0.11126     0.05758     0.04688
 Rotational constants (GHZ):           2.31824     1.19975     0.97675
    7 imaginary frequencies ignored.
 Zero-point vibrational energy     191539.5 (Joules/Mol)
                                   45.77904 (Kcal/Mol)
 Warning -- explicit consideration of  10 degrees of freedom as
           vibrations may cause significant error
 Vibrational temperatures:    175.95   188.86   348.00   464.14   488.86
          (Kelvin)            610.08   665.88   739.57   814.45   849.22
                             1164.16  1181.43  1340.55  1437.25  1499.72
                             1598.54  1662.39  1894.25  2028.74  2539.98
                             6251.50  9062.95  9067.35

 Zero-point correction=                           0.072954 (Hartree/Particle)
 Thermal correction to Energy=                    0.079845
 Thermal correction to Enthalpy=                  0.080789
 Thermal correction to Gibbs Free Energy=         0.040623
 Sum of electronic and zero-point Energies=           -869.378795
 Sum of electronic and thermal Energies=              -869.371903
 Sum of electronic and thermal Enthalpies=            -869.370959
 Sum of electronic and thermal Free Energies=         -869.411125

                     E (Thermal)             CV                S
                      KCal/Mol        Cal/Mol-Kelvin    Cal/Mol-Kelvin
 Total                   50.104             24.143             84.537
 Electronic               0.000              0.000              0.000
 Translational            0.889              2.981             41.004
 Rotational               0.889              2.981             29.160
 Vibrational             48.326             18.181             14.372
 Vibration     1          0.610              1.931              3.064
 Vibration     2          0.612              1.922              2.927
 Vibration     3          0.658              1.776              1.789
 Vibration     4          0.708              1.630              1.297
 Vibration     5          0.720              1.596              1.213
 Vibration     6          0.786              1.418              0.878
 Vibration     7          0.820              1.333              0.758
 Vibration     8          0.869              1.219              0.624
 Vibration     9          0.922              1.105              0.512
 Vibration    10          0.948              1.053              0.467

 Normal termination of Gaussian 16 at Mon Mar  6 10:25:34 2023.
