 Gaussian 16, Revision C.01,
 Gaussian 16:  ES64L-G16RevC.01  3-Jul-2019

 ----------------------------------------------------------------------
 #p pop=(regular,nbo,savenbos) freq=noraman def2svp empiricaldispersion
 =gd3bj output=wfx pbe1pbe
 ----------------------------------------------------------------------

 ----------------------------------------
 DOJSOL_Complex_0_Ligand_0_NN_Cu_oriented
 ----------------------------------------
 Symbolic Z-matrix:
 Charge = -1 Multiplicity = 1

                         Standard orientation:
 ---------------------------------------------------------------------
 Center     Atomic      Atomic             Coordinates (Angstroms)
 Number     Number       Type             X           Y           Z
 ---------------------------------------------------------------------
      1          8           0        2.334466    1.144390    0.725079
      2          6           0        1.195618    0.478558    0.344510
      3          6           0        0.198117    2.598896   -1.081881
      4          6           0       -0.403191    2.446903    1.108891
      5          6           0       -0.474817    1.856129    2.460891
      6          5           0       -0.049995    1.419510   -0.053194
      7          1           0        0.862451    3.217299   -0.768319
      8          1           0       -0.618192    3.069713   -1.264145
      9          1           0        0.287688    3.115633    1.112602
     10          1           0       -1.242561    2.858043    0.892333
     11          1           0       -0.681663    2.552589    3.090543
     12          1           0        0.362616    1.449996    2.697500
     13          1           0       -1.168102    1.193239    2.476749
     14          6           0        0.631698    1.834105   -2.254887
     15          1           0        0.813881    2.438626   -2.978558
     16          1           0        1.432573    1.356379   -2.027922
     17          1           0       -0.048071    1.208792   -2.523747
     18          6           0        3.244694    0.231204    1.238114
     19          6           0        2.748220   -1.142475    0.728230
     20          1           0        4.129255    0.411485    0.911901
     21          1           0        3.245142    0.255940    2.197151
     22          1           0        2.735390   -1.757491    1.466245
     23          6           0        3.520191   -1.751405   -0.374138
     24          6           0        3.719361   -0.846237   -1.562682
     25          1           0        3.042565   -2.529064   -0.675027
     26          1           0        4.226028   -1.306274   -2.235050
     27          1           0        2.866243   -0.592320   -1.921015
     28          8           0       -2.404936    1.161144   -0.783307
     29          7           0       -1.372890   -0.777744   -0.584673
     30          6           0       -2.790505   -1.146298   -0.841209
     31          6           0       -3.438125   -1.763741    0.385844
     32          6           0       -4.730718   -2.422114    0.083443
     33          6           0       -3.596658   -0.766353    1.556240
     34          6           0       -3.352514    0.190572   -1.317869
     35          6           0       -1.286177    0.496600   -0.500241
     36          1           0       -2.824208   -1.776048   -1.563684
     37          1           0       -2.844147   -2.454056    0.690654
     38          1           0       -5.095516   -2.794902    0.889540
     39          1           0       -5.341552   -1.774717   -0.274359
     40          1           0       -4.594105   -3.123441   -0.559955
     41          1           0       -2.733602   -0.438960    1.817889
     42          1           0       -4.149240   -0.032707    1.277678
     43          1           0       -3.380809    0.231140   -2.276061
     44          1           0       -4.232972    0.338251   -0.963990
     45          7           0        1.333851   -0.786212    0.388141
     46          6           0        4.876495   -2.212711    0.159629
     47          1           0        5.378426   -2.611387   -0.555479
     48          1           0        5.352813   -1.456843    0.504991
     49          1           0        4.747006   -2.859133    0.858275
     50          1           0       -4.009184   -1.213603    2.299159
     51          1           0        4.198715   -0.060106   -1.285694
 ---------------------------------------------------------------------

 SCF Done:  E(RPBE1PBE) =  -910.404379064     A.U. after   14 cycles

 The electronic state is 1-A.
 Alpha  occ. eigenvalues --  -19.08252 -19.07311 -14.18603 -14.18254 -10.12230
 Alpha  occ. eigenvalues --  -10.11412 -10.11407 -10.11083 -10.10085 -10.09889
 Alpha  occ. eigenvalues --  -10.09327 -10.09151 -10.08096 -10.07759 -10.06118
 Alpha  occ. eigenvalues --  -10.06102 -10.01034 -10.00799  -9.98853  -9.98820
 Alpha  occ. eigenvalues --   -6.52085  -0.94850  -0.94720  -0.75520  -0.75291
 Alpha  occ. eigenvalues --   -0.71548  -0.70996  -0.65543  -0.64202  -0.63456
 Alpha  occ. eigenvalues --   -0.62852  -0.62705  -0.62440  -0.55251  -0.54845
 Alpha  occ. eigenvalues --   -0.51569  -0.47145  -0.46808  -0.45484  -0.44827
 Alpha  occ. eigenvalues --   -0.43473  -0.41448  -0.41198  -0.37988  -0.37287
 Alpha  occ. eigenvalues --   -0.36097  -0.35604  -0.34973  -0.34859  -0.34027
 Alpha  occ. eigenvalues --   -0.33667  -0.32661  -0.32216  -0.31683  -0.31458
 Alpha  occ. eigenvalues --   -0.31074  -0.30378  -0.29642  -0.29250  -0.26274
 Alpha  occ. eigenvalues --   -0.25780  -0.25197  -0.24622  -0.24116  -0.23574
 Alpha  occ. eigenvalues --   -0.23465  -0.23271  -0.22554  -0.22307  -0.21847
 Alpha  occ. eigenvalues --   -0.20118  -0.19694  -0.19071  -0.18833  -0.15493
 Alpha  occ. eigenvalues --   -0.14330  -0.10909  -0.10518  -0.08993  -0.07445
 Alpha  occ. eigenvalues --   -0.05087
 Alpha virt. eigenvalues --    0.17802   0.17957   0.19500   0.20670   0.21680
 Alpha virt. eigenvalues --    0.22168   0.22465   0.22543   0.22836   0.23351
 Alpha virt. eigenvalues --    0.24381   0.24958   0.25431   0.26327   0.26944

 Mulliken charges:
               1
     1  O   -0.405396
     2  C    0.210009
     3  C   -0.066657
     4  C   -0.066202
     5  C    0.277659
     6  B   -0.102559
     7  H   -0.083518
     8  H   -0.086012
     9  H   -0.073560
    10  H   -0.076573
    11  H   -0.099615
    12  H   -0.058020
    13  H   -0.082148
    14  C    0.286042
    15  H   -0.118270
    16  H   -0.056144
    17  H   -0.049073
    18  C    0.422514
    19  C   -0.020274
    20  H   -0.075609
    21  H   -0.067071
    22  H   -0.076824
    23  C   -0.099619
    24  C    0.213370
    25  H   -0.045001
    26  H   -0.059663
    27  H    0.000897
    28  O   -0.394711
    29  N   -0.296844
    30  C   -0.024312
    31  C   -0.111436
    32  C    0.224982
    33  C    0.192939
    34  C    0.422455
    35  C    0.218749
    36  H   -0.081403
    37  H   -0.040870
    38  H   -0.049204
    39  H   -0.056617
    40  H   -0.042929
    41  H    0.008094
    42  H   -0.049378
    43  H   -0.054175
    44  H   -0.069790
    45  N   -0.286800
    46  C    0.199014
    47  H   -0.048546
    48  H   -0.052630
    49  H   -0.041184
    50  H   -0.057724
    51  H   -0.050365
 Sum of Mulliken charges =  -1.00000

 Dipole moment (field-independent basis, Debye):
    X=             -0.0776    Y=             -3.6278    Z=              0.0310  Tot=              3.6287
 Quadrupole moment (field-independent basis, Debye-Ang):
   XX=           -141.6870   YY=           -150.2697   ZZ=           -138.9797
   XY=             -0.0727   XZ=              3.8002   YZ=             -0.3082

  Exact polarizability:     200.032      -0.318     181.807       3.612       0.329     161.086
 Approx polarizability:     240.148      -0.666     270.358       8.793       1.860     216.510

 Summary of Natural Population Analysis:

                                       Natural Population
                Natural  -----------------------------------------------
    Atom  No    Charge         Core      Valence    Rydberg      Total
 -----------------------------------------------------------------------
      O    1   -0.59601      1.99967     6.58489    0.01145     8.59601
      C    2    0.40217      1.99886     3.55034    0.04863     5.59783
      C    3   -0.61151      1.99897     4.59481    0.01774     6.61151
      C    4   -0.60308      1.99890     4.58604    0.01814     6.60308
      C    5   -0.53507      1.99921     4.52612    0.00974     6.53507
      B    6    0.36116      1.99894     2.60818    0.03172     4.63884
      H    7    0.17431      0.00000     0.82147    0.00422     0.82569
      H    8    0.18074      0.00000     0.81479    0.00447     0.81926
      H    9    0.17067      0.00000     0.82412    0.00521     0.82933
      H   10    0.17966      0.00000     0.81565    0.00469     0.82034
      H   11    0.15515      0.00000     0.84045    0.00440     0.84485
      H   12    0.16763      0.00000     0.82836    0.00401     0.83237
      H   13    0.16681      0.00000     0.82968    0.00351     0.83319
      C   14   -0.53345      1.99921     4.52322    0.01102     6.53345
      H   15    0.15018      0.00000     0.84460    0.00522     0.84982
      H   16    0.17104      0.00000     0.82456    0.00441     0.82896
      H   17    0.17309      0.00000     0.82268    0.00423     0.82691
      C   18   -0.00793      1.99892     3.98776    0.02124     6.00793
      C   19   -0.03904      1.99891     4.01613    0.02399     6.03904
      H   20    0.14500      0.00000     0.85136    0.00364     0.85500
      H   21    0.14526      0.00000     0.85082    0.00392     0.85474
      H   22    0.16673      0.00000     0.82915    0.00412     0.83327
      C   23   -0.17662      1.99898     4.16236    0.01528     6.17662
      C   24   -0.55356      1.99916     4.54324    0.01116     6.55356
      H   25    0.18035      0.00000     0.81276    0.00689     0.81965
      H   26    0.17329      0.00000     0.82389    0.00282     0.82671
      H   27    0.20359      0.00000     0.79246    0.00395     0.79641
      O   28   -0.58309      1.99967     6.57222    0.01120     8.58309
      N   29   -0.59750      1.99932     5.58042    0.01777     7.59750
      C   30   -0.03801      1.99894     4.01507    0.02400     6.03801
      C   31   -0.17544      1.99900     4.16059    0.01585     6.17544
      C   32   -0.55335      1.99917     4.54369    0.01049     6.55335
      C   33   -0.54799      1.99915     4.53808    0.01076     6.54799
      C   34   -0.01840      1.99883     4.00076    0.01881     6.01840
      C   35    0.40273      1.99888     3.54762    0.05076     5.59727
      H   36    0.16529      0.00000     0.83063    0.00408     0.83471
      H   37    0.18149      0.00000     0.81141    0.00711     0.81851
      H   38    0.17978      0.00000     0.81711    0.00311     0.82022
      H   39    0.17190      0.00000     0.82452    0.00358     0.82810
      H   40    0.17910      0.00000     0.81767    0.00323     0.82090
      H   41    0.20292      0.00000     0.79356    0.00352     0.79708
      H   42    0.17437      0.00000     0.82263    0.00301     0.82563
      H   43    0.15024      0.00000     0.84610    0.00366     0.84976
      H   44    0.14925      0.00000     0.84702    0.00373     0.85075
      N   45   -0.58498      1.99927     5.56842    0.01729     7.58498
      C   46   -0.54877      1.99917     4.53888    0.01072     6.54877
      H   47    0.17843      0.00000     0.81864    0.00294     0.82157
      H   48    0.17373      0.00000     0.82295    0.00332     0.82627
      H   49    0.17834      0.00000     0.81859    0.00307     0.82166
      H   50    0.17212      0.00000     0.82509    0.00279     0.82788
      H   51    0.17732      0.00000     0.81973    0.00296     0.82268
 =======================================================================
   * Total *   -1.00000     41.98113   119.49126    0.52761   162.00000

 ******   38 imaginary frequencies (negative Signs) ******

                      1                      2                      3
                      A                      A                      A
 Frequencies --  -1391.3052             -1389.7426             -1384.4951
 Red. masses --      1.0083                 1.0089                 1.0086
 Frc consts  --      1.1500                 1.1481                 1.1391
 IR Inten    --      0.0421                 0.0678                 0.3434

                      4                      5                      6
                      A                      A                      A
 Frequencies --  -1381.5920             -1379.0481             -1370.0242
 Red. masses --      1.0092                 1.0096                 1.0091
 Frc consts  --      1.1350                 1.1312                 1.1160
 IR Inten    --      0.0604                 0.0273                 0.4284

                      7                      8                      9
                      A                      A                      A
 Frequencies --  -1212.8476             -1184.5645             -1133.1375
 Red. masses --      1.0277                 1.0300                 1.0336
 Frc consts  --      0.8907                 0.8515                 0.7819
 IR Inten    --     11.9370                13.4968                 3.0671

                     10                     11                     12
                      A                      A                      A
 Frequencies --  -1129.4451             -1042.9709             -1035.2161
 Red. masses --      1.0386                 1.0612                 1.0753
 Frc consts  --      0.7806                 0.6801                 0.6790
 IR Inten    --      2.4885                10.5276                 6.1887

                     13                     14                     15
                      A                      A                      A
 Frequencies --  -1025.0291             -1017.9891             -1014.7234
 Red. masses --      1.0385                 1.0464                 1.0516
 Frc consts  --      0.6428                 0.6389                 0.6380
 IR Inten    --     10.3335                 2.2957                 2.0057

                     16                     17                     18
                      A                      A                      A
 Frequencies --  -1004.7612              -996.5445              -994.0915
 Red. masses --      1.0648                 1.0290                 1.0456
 Frc consts  --      0.6334                 0.6021                 0.6088
 IR Inten    --     15.3594                 2.0492                11.9357

                     19                     20                     21
                      A                      A                      A
 Frequencies --   -989.4981              -985.1865              -984.0018
 Red. masses --      1.0309                 1.0478                 1.0391
 Frc consts  --      0.5947                 0.5992                 0.5928
 IR Inten    --      0.9000                 1.6898                 1.5752

                     22                     23                     24
                      A                      A                      A
 Frequencies --   -964.2055              -728.8158              -685.2943
 Red. masses --      1.0672                 1.1375                 1.1947
 Frc consts  --      0.5846                 0.3560                 0.3306
 IR Inten    --     20.2117                 4.6974                 4.9098

                     25                     26                     27
                      A                      A                      A
 Frequencies --   -673.6338              -659.5388              -651.1972
 Red. masses --      1.2212                 1.2346                 1.2256
 Frc consts  --      0.3265                 0.3164                 0.3062
 IR Inten    --      2.6383                 1.5511                 3.3516

                     28                     29                     30
                      A                      A                      A
 Frequencies --   -643.9306              -592.1943              -570.6422
 Red. masses --      1.2070                 1.3348                 1.3081
 Frc consts  --      0.2949                 0.2758                 0.2510
 IR Inten    --      1.3027                 4.4238                 0.0302

                     31                     32                     33
                      A                      A                      A
 Frequencies --   -567.4663              -531.7281              -515.5359
 Red. masses --      1.2769                 1.4663                 1.4115
 Frc consts  --      0.2423                 0.2443                 0.2210
 IR Inten    --     13.3873                 0.4532                 4.5158

                     34                     35                     36
                      A                      A                      A
 Frequencies --   -487.6571              -461.9255              -455.5491
 Red. masses --      1.4159                 1.4751                 1.4378
 Frc consts  --      0.1984                 0.1854                 0.1758
 IR Inten    --      6.3510                 4.9715                12.4924

                     37                     38                     39
                      A                      A                      A
 Frequencies --   -434.0911              -358.3133               121.9031
 Red. masses --      1.5512                 1.7918                 4.7923
 Frc consts  --      0.1722                 0.1355                 0.0420
 IR Inten    --      1.3503                 1.4350                 0.0647

                     40                     41                     42
                      A                      A                      A
 Frequencies --    203.4416               209.7652               226.2478
 Red. masses --      4.3493                 4.0729                 4.0706
 Frc consts  --      0.1061                 0.1056                 0.1228
 IR Inten    --      0.2071                 0.9860                 0.0442

                     43                     44                     45
                      A                      A                      A
 Frequencies --    250.2699               272.4156               284.6195
 Red. masses --      4.1386                 1.3561                 3.2583
 Frc consts  --      0.1527                 0.0593                 0.1555
 IR Inten    --      2.5425                17.0218                 7.5458

                     46                     47                     48
                      A                      A                      A
 Frequencies --    297.2389               304.7030               320.6984
 Red. masses --      1.3698                 2.7101                 1.8185
 Frc consts  --      0.0713                 0.1482                 0.1102
 IR Inten    --     15.3790                 2.2018                 5.9415

                     49                     50                     51
                      A                      A                      A
 Frequencies --    329.6812               350.5782               412.7198
 Red. masses --      2.4222                 3.4783                 1.1446
 Frc consts  --      0.1551                 0.2519                 0.1149
 IR Inten    --      1.9728                 4.6907                18.6204

                     52                     53                     54
                      A                      A                      A
 Frequencies --    421.4083               429.4056               441.9291
 Red. masses --      1.2019                 3.0969                 3.9563
 Frc consts  --      0.1258                 0.3364                 0.4552
 IR Inten    --     15.1086                 4.5528                 1.3841

                     55                     56                     57
                      A                      A                      A
 Frequencies --    455.7863               457.1181               463.7871
 Red. masses --      1.2782                 4.5432                 2.8959
 Frc consts  --      0.1565                 0.5593                 0.3670
 IR Inten    --      8.7271                 0.5220                 0.8010

                     58                     59                     60
                      A                      A                      A
 Frequencies --    487.6343               556.9550               578.7126
 Red. masses --      4.7588                 3.4203                 3.9453
 Frc consts  --      0.6667                 0.6251                 0.7785
 IR Inten    --      0.4954                 3.2697                 0.0450

                     61                     62                     63
                      A                      A                      A
 Frequencies --    582.3715               590.9115               614.1093
 Red. masses --      3.0755                 3.3371                 3.2295
 Frc consts  --      0.6146                 0.6865                 0.7176
 IR Inten    --      3.2552                 0.7201                 1.3997

                     64                     65                     66
                      A                      A                      A
 Frequencies --    652.1474               675.2586               683.3102
 Red. masses --      4.4152                 4.3099                 4.0676
 Frc consts  --      1.1063                 1.1579                 1.1190
 IR Inten    --      2.0219                 0.8340                19.6012

                     67                     68                     69
                      A                      A                      A
 Frequencies --    688.4267               693.1145               709.9971
 Red. masses --      3.9809                 2.3433                 3.2048
 Frc consts  --      1.1116                 0.6633                 0.9518
 IR Inten    --      0.0113                 6.4050                 2.8622

                     70                     71                     72
                      A                      A                      A
 Frequencies --    713.9557               742.7970               756.2923
 Red. masses --      2.4564                 4.9927                 4.5585
 Frc consts  --      0.7377                 1.6230                 1.5362
 IR Inten    --      0.0881                 4.6879                16.0340

                     73                     74                     75
                      A                      A                      A
 Frequencies --    787.3079               810.7601               815.6638
 Red. masses --      2.8034                 5.2078                 5.2663
 Frc consts  --      1.0238                 2.0169                 2.0643
 IR Inten    --      0.6405                 3.3923                11.6107

                     76                     77                     78
                      A                      A                      A
 Frequencies --    820.4303               862.2291               872.9645
 Red. masses --      2.1988                 1.2313                 1.9392
 Frc consts  --      0.8720                 0.5393                 0.8707
 IR Inten    --      0.7901                10.5200                22.3308

                     79                     80                     81
                      A                      A                      A
 Frequencies --    877.0566               878.5497               887.0701
 Red. masses --      2.0752                 2.4698                 1.7442
 Frc consts  --      0.9405                 1.1232                 0.8087
 IR Inten    --     12.0167                22.5764                 0.9781

                     82                     83                     84
                      A                      A                      A
 Frequencies --    905.4860               921.2704               930.0196
 Red. masses --      3.7221                 2.0885                 1.5120
 Frc consts  --      1.7981                 1.0444                 0.7705
 IR Inten    --     58.6672                12.5613                 9.5549

                     85                     86                     87
                      A                      A                      A
 Frequencies --    937.9749               958.1482               961.5374
 Red. masses --      1.7247                 1.5476                 1.3818
 Frc consts  --      0.8940                 0.8371                 0.7527
 IR Inten    --     12.0895                 4.6006                 4.3456

                     88                     89                     90
                      A                      A                      A
 Frequencies --    964.8395               970.2954               972.3592
 Red. masses --      1.7403                 1.3019                 1.5074
 Frc consts  --      0.9545                 0.7222                 0.8397
 IR Inten    --      2.5256                12.7592                11.7075

                     91                     92                     93
                      A                      A                      A
 Frequencies --    992.6546               996.3401               997.6688
 Red. masses --      1.3786                 1.2436                 1.2684
 Frc consts  --      0.8004                 0.7274                 0.7438
 IR Inten    --      2.4644                 1.8599                 2.6768

                     94                     95                     96
                      A                      A                      A
 Frequencies --   1003.6684              1012.2346              1024.0337
 Red. masses --      1.2532                 1.9900                 1.6905
 Frc consts  --      0.7438                 1.2014                 1.0444
 IR Inten    --      3.7027                10.7346                 4.3009

                     97                     98                     99
                      A                      A                      A
 Frequencies --   1034.8891              1045.4604              1052.1952
 Red. masses --      2.9610                 1.1847                 2.5844
 Frc consts  --      1.8684                 0.7629                 1.6858
 IR Inten    --      7.5812                 7.6200                31.6445

                    100                    101                    102
                      A                      A                      A
 Frequencies --   1075.0736              1083.7243              1089.4465
 Red. masses --      1.1005                 2.1111                 3.0451
 Frc consts  --      0.7494                 1.4608                 2.1294
 IR Inten    --      6.3426                16.5749                 1.2426

                    103                    104                    105
                      A                      A                      A
 Frequencies --   1100.5399              1144.0683              1147.6312
 Red. masses --      2.3138                 2.6847                 3.5663
 Frc consts  --      1.6511                 2.0704                 2.7674
 IR Inten    --     26.7287                 3.3803                 3.0020

                    106                    107                    108
                      A                      A                      A
 Frequencies --   1166.5718              1202.4191              1228.0377
 Red. masses --      4.3251                 5.2412                 5.1058
 Frc consts  --      3.4679                 4.4647                 4.5367
 IR Inten    --      1.8890                44.2736                 3.3283

                    109                    110                    111
                      A                      A                      A
 Frequencies --   1235.8889              1248.3654              1253.9084
 Red. masses --      5.8545                 6.4693                 5.2846
 Frc consts  --      5.2686                 5.9401                 4.8954
 IR Inten    --      0.6344                60.3009                 1.7820

                    112                    113                    114
                      A                      A                      A
 Frequencies --   1281.8119              1313.1237              1350.2618
 Red. masses --      5.6707                 6.0611                10.2915
 Frc consts  --      5.4896                 6.1576                11.0552
 IR Inten    --      4.3365                 1.7954                76.2689

                    115                    116                    117
                      A                      A                      A
 Frequencies --   1382.8476              1707.3532              1737.8816
 Red. masses --      6.5484                12.1896                12.2772
 Frc consts  --      7.3779                20.9356                21.8468
 IR Inten    --      2.2063                80.4074               241.6967

                    118                    119                    120
                      A                      A                      A
 Frequencies --   4437.1530              4445.5554              4455.5107
 Red. masses --      1.0322                 1.0324                 1.0325
 Frc consts  --     11.9738                12.0213                12.0762
 IR Inten    --     79.6477                49.7179                24.7604

                    121                    122                    123
                      A                      A                      A
 Frequencies --   4463.3257              4466.9847              4470.0332
 Red. masses --      1.0326                 1.0320                 1.0319
 Frc consts  --     12.1195                12.1328                12.1476
 IR Inten    --     14.1985                22.0389                17.2600

                    124                    125                    126
                      A                      A                      A
 Frequencies --   4513.7942              4529.6908              4536.9851
 Red. masses --      1.0589                 1.0578                 1.0575
 Frc consts  --     12.7112                12.7874                12.8249
 IR Inten    --     15.9340                42.8103                42.6952

                    127                    128                    129
                      A                      A                      A
 Frequencies --   4543.2118              4588.1737              4595.4881
 Red. masses --      1.0575                 1.0872                 1.0878
 Frc consts  --     12.8608                13.4843                13.5349
 IR Inten    --     29.5834                19.7658                17.2196

                    130                    131                    132
                      A                      A                      A
 Frequencies --   4602.0875              4614.0982              4624.5510
 Red. masses --      1.0872                 1.0879                 1.1054
 Frc consts  --     13.5663                13.6466                13.9284
 IR Inten    --      4.9287                29.0339                60.7713

                    133                    134                    135
                      A                      A                      A
 Frequencies --   4636.1574              4649.9088              4653.3712
 Red. masses --      1.1052                 1.1084                 1.1062
 Frc consts  --     13.9965                14.1195                14.1128
 IR Inten    --     39.2509                 3.4657                11.1764

                    136                    137                    138
                      A                      A                      A
 Frequencies --   4655.5677              4660.9019              4663.2716
 Red. masses --      1.1071                 1.1061                 1.1066
 Frc consts  --     14.1377                14.1568                14.1784
 IR Inten    --      3.1412                11.0900                11.4611

                    139                    140                    141
                      A                      A                      A
 Frequencies --   4665.1844              4668.8930              4669.7271
 Red. masses --      1.1084                 1.1120                 1.1068
 Frc consts  --     14.2129                14.2815                14.2196
 IR Inten    --     18.4172                20.8619                 3.3638

                    142                    143                    144
                      A                      A                      A
 Frequencies --   4670.6992              4671.3735              4678.2671
 Red. masses --      1.1062                 1.1066                 1.1123
 Frc consts  --     14.2179                14.2280                14.3434
 IR Inten    --     24.5718                32.9935                14.1890

                    145                    146                    147
                      A                      A                      A
 Frequencies --   4681.1135              4687.4286              4690.9850
 Red. masses --      1.1068                 1.1070                 1.1064
 Frc consts  --     14.2891                14.3301                14.3442
 IR Inten    --      2.8335                 0.7361                 9.2209

 - Thermochemistry -
 -------------------
 Temperature   298.150 Kelvin.  Pressure   1.00000 Atm.
 Atom     1 has atomic number  8 and mass  15.99491

 Molecular mass:   293.24003 amu.
 Principal axes and moments of inertia in atomic units:
                           1         2         3
     Eigenvalues --  3884.332649373.45942**********
           X            0.99995   0.00049  -0.01047
           Y           -0.00048   1.00000   0.00072
           Z            0.01047  -0.00072   0.99994
 This molecule is an asymmetric top.
 Rotational symmetry number  1.
 Warning -- assumption of classical behavior for rotation
           may cause significant error
 Rotational temperatures (Kelvin)      0.02230     0.00924     0.00830
 Rotational constants (GHZ):           0.46462     0.19254     0.17301
   38 imaginary frequencies ignored.
 Zero-point vibrational energy    1207697.6 (Joules/Mol)
                                  288.64665 (Kcal/Mol)
 Warning -- explicit consideration of  25 degrees of freedom as
           vibrations may cause significant error
 Vibrational temperatures:    175.39   292.71   301.81   325.52   360.08
          (Kelvin)            391.95   409.50   427.66   438.40   461.41
                              474.34   504.40   593.81   606.31   617.82
                              635.84   655.77   657.69   667.29   701.60
                              801.33   832.64   837.90   850.19   883.57
                              938.29   971.55   983.13   990.49   997.24
                             1021.53  1027.22  1068.72  1088.14  1132.76
                             1166.50  1173.56  1180.42  1240.56  1256.00
                             1261.89  1264.04  1276.30  1302.79  1325.50
                             1338.09  1349.54  1378.56  1383.44  1388.19
                             1396.04  1399.01  1428.21  1433.51  1435.42
                             1444.05  1456.38  1473.36  1488.97  1504.18
                             1513.87  1546.79  1559.24  1567.47  1583.43
                             1646.06  1651.19  1678.44  1730.01  1766.87
                             1778.17  1796.12  1804.09  1844.24  1889.29
                             1942.73  1989.61  2456.50  2500.42  6384.07
                             6396.16  6410.49  6421.73  6426.99  6431.38
                             6494.34  6517.21  6527.71  6536.67  6601.36
                             6611.88  6621.38  6638.66  6653.70  6670.40
                             6690.18  6695.16  6698.32  6706.00  6709.41
                             6712.16  6717.50  6718.70  6720.09  6721.06
                             6730.98  6735.08  6744.16  6749.28

 Zero-point correction=                           0.459988 (Hartree/Particle)
 Thermal correction to Energy=                    0.474096
 Thermal correction to Enthalpy=                  0.475040
 Thermal correction to Gibbs Free Energy=         0.421136
 Sum of electronic and zero-point Energies=           -909.944391
 Sum of electronic and thermal Energies=              -909.930283
 Sum of electronic and thermal Enthalpies=            -909.929339
 Sum of electronic and thermal Free Energies=         -909.983243

                     E (Thermal)             CV                S
                      KCal/Mol        Cal/Mol-Kelvin    Cal/Mol-Kelvin
 Total                  297.500             66.242            113.451
 Electronic               0.000              0.000              0.000
 Translational            0.889              2.981             42.925
 Rotational               0.889              2.981             34.295
 Vibrational            295.722             60.280             36.231
 Vibration     1          0.609              1.931              3.070
 Vibration     2          0.639              1.835              2.102
 Vibration     3          0.642              1.826              2.046
 Vibration     4          0.650              1.801              1.909
 Vibration     5          0.663              1.762              1.729
 Vibration     6          0.675              1.724              1.581
 Vibration     7          0.683              1.702              1.506
 Vibration     8          0.691              1.679              1.432
 Vibration     9          0.696              1.665              1.391
 Vibration    10          0.706              1.634              1.307
 Vibration    11          0.712              1.616              1.262
 Vibration    12          0.727              1.574              1.164
 Vibration    13          0.776              1.443              0.917
 Vibration    14          0.784              1.424              0.887
 Vibration    15          0.791              1.406              0.861
 Vibration    16          0.802              1.379              0.821
 Vibration    17          0.814              1.348              0.778
 Vibration    18          0.815              1.345              0.775
 Vibration    19          0.821              1.330              0.755
 Vibration    20          0.844              1.277              0.690
 Vibration    21          0.912              1.124              0.530
 Vibration    22          0.935              1.077              0.488
 Vibration    23          0.939              1.069              0.481
 Vibration    24          0.948              1.051              0.466
 Vibration    25          0.974              1.002              0.426

 Normal termination of Gaussian 16 at Mon Mar  6 12:41:58 2023.
