 Gaussian 16, Revision C.01,
 Gaussian 16:  ES64L-G16RevC.01  3-Jul-2019

 ----------------------------------------------------------------------
 #p pop=(regular,nbo,savenbos) freq=noraman def2svp empiricaldispersion
 =gd3bj output=wfx pbe1pbe
 ----------------------------------------------------------------------

 ----------------------------------------
 DOXSER_Complex_4_Ligand_1_ON_Cu_oriented
 ----------------------------------------
 Symbolic Z-matrix:
 Charge = -1 Multiplicity = 1

                         Standard orientation:
 ---------------------------------------------------------------------
 Center     Atomic      Atomic             Coordinates (Angstroms)
 Number     Number       Type             X           Y           Z
 ---------------------------------------------------------------------
      1          6           0       -2.113065    1.492839   -0.069421
      2          6           0       -3.187387    0.652758    0.328491
      3          6           0       -3.044385   -0.696463    0.403662
      4          6           0       -1.811196   -1.247258    0.073678
      5          6           0       -0.096603   -2.585907   -0.310918
      6          1           0        0.404070   -3.366728   -0.379263
      7          6           0        0.382237   -1.323189   -0.548217
      8          6           0       -0.708748   -0.427136   -0.310184
      9          6           0       -0.888685    0.966594   -0.397399
     10          1           0       -0.191746    1.516145   -0.671918
     11          6           0        1.778214   -1.048147   -0.982936
     12          1           0        1.743906   -0.519770   -1.797111
     13          1           0        2.199284   -1.893655   -1.202841
     14          6           0        2.665747   -0.317074    0.025864
     15          1           0        3.599416   -0.470958   -0.230875
     16          6           0        2.433809    1.186132    0.036706
     17          7           0       -1.406244   -2.531617    0.038255
     18          1           0       -1.901009   -3.213335    0.210996
     19          7           0        2.488993   -0.831379    1.393751
     20          1           0        2.193855   -1.669753    1.369979
     21          8           0       -2.386494    2.826169   -0.108489
     22          1           0       -1.771436    3.324351   -0.272552
     23          8           0        1.972453    1.683560    1.121910
     24          8           0        2.686451    1.857818   -0.961906
     25          1           0        3.265058   -0.819650    1.830169
     26          1           0       -4.006965    1.032078    0.543172
     27          1           0       -3.752581   -1.237028    0.668139
 ---------------------------------------------------------------------

 SCF Done:  E(RPBE1PBE) =  -759.393725996     A.U. after   18 cycles

 The electronic state is 1-A.
 Alpha  occ. eigenvalues --  -19.09854 -18.92800 -18.91018 -14.31125 -14.17545
 Alpha  occ. eigenvalues --  -10.16419 -10.13983 -10.12661 -10.10646 -10.10549
 Alpha  occ. eigenvalues --  -10.10097 -10.09727 -10.08578 -10.08469 -10.07186
 Alpha  occ. eigenvalues --  -10.06962  -0.98198  -0.90899  -0.82272  -0.76535
 Alpha  occ. eigenvalues --   -0.74976  -0.71179  -0.70716  -0.65045  -0.64709
 Alpha  occ. eigenvalues --   -0.62149  -0.56492  -0.52366  -0.51775  -0.47867
 Alpha  occ. eigenvalues --   -0.47521  -0.43380  -0.41451  -0.38352  -0.36600
 Alpha  occ. eigenvalues --   -0.35668  -0.34715  -0.33387  -0.31884  -0.31254
 Alpha  occ. eigenvalues --   -0.30614  -0.29792  -0.27613  -0.26611  -0.25648
 Alpha  occ. eigenvalues --   -0.24832  -0.22587  -0.21873  -0.21225  -0.18055
 Alpha  occ. eigenvalues --   -0.17201  -0.16487  -0.10339  -0.09222  -0.08589
 Alpha  occ. eigenvalues --   -0.03383  -0.03254  -0.00544
 Alpha virt. eigenvalues --    0.10722   0.15843   0.17827   0.19218   0.20204
 Alpha virt. eigenvalues --    0.21701   0.22434   0.24283   0.25441   0.27124
 Alpha virt. eigenvalues --    0.28333   0.29504   0.30391   0.31418   0.32062

 Mulliken charges:
               1
     1  C    0.138757
     2  C    0.060671
     3  C    0.053148
     4  C    0.045297
     5  C    0.125966
     6  H   -0.129091
     7  C   -0.181140
     8  C    0.027952
     9  C    0.087375
    10  H   -0.130303
    11  C    0.297913
    12  H   -0.038314
    13  H   -0.091511
    14  C   -0.045628
    15  H   -0.064607
    16  C    0.112031
    17  N   -0.009007
    18  H    0.011026
    19  N   -0.043698
    20  H   -0.004071
    21  O   -0.147146
    22  H    0.082564
    23  O   -0.452995
    24  O   -0.427619
    25  H    0.013401
    26  H   -0.133189
    27  H   -0.157782
 Sum of Mulliken charges =  -1.00000

 Dipole moment (field-independent basis, Debye):
    X=             -7.0577    Y=             -9.4002    Z=             -0.9895  Tot=             11.7964
 Quadrupole moment (field-independent basis, Debye-Ang):
   XX=           -116.9715   YY=            -97.8882   ZZ=           -104.0234
   XY=            -13.4422   XZ=             -0.2512   YZ=             -3.5798

  Exact polarizability:     146.888     -11.986     146.495     -12.839      -1.244      84.462
 Approx polarizability:     210.941     -18.687     244.638     -29.681      -4.146     138.283

 Summary of Natural Population Analysis:

                                       Natural Population
                Natural  -----------------------------------------------
    Atom  No    Charge         Core      Valence    Rydberg      Total
 -----------------------------------------------------------------------
      C    1    0.31708      1.99879     3.66132    0.02280     5.68292
      C    2   -0.23490      1.99901     4.21928    0.01661     6.23490
      C    3   -0.22574      1.99903     4.21214    0.01457     6.22574
      C    4    0.15336      1.99896     3.82670    0.02099     5.84664
      C    5   -0.00329      1.99897     3.98305    0.02127     6.00329
      H    6    0.15678      0.00000     0.84079    0.00243     0.84322
      C    7   -0.07226      1.99898     4.05139    0.02189     6.07226
      C    8   -0.07108      1.99891     4.05418    0.01799     6.07108
      C    9   -0.21199      1.99888     4.19531    0.01780     6.21199
      H   10    0.20484      0.00000     0.78994    0.00522     0.79516
      C   11   -0.39860      1.99898     4.38286    0.01676     6.39860
      H   12    0.21237      0.00000     0.77881    0.00882     0.78763
      H   13    0.17686      0.00000     0.81827    0.00487     0.82314
      C   14   -0.09003      1.99893     4.06826    0.02283     6.09003
      H   15    0.15890      0.00000     0.83482    0.00627     0.84110
      C   16    0.76118      1.99942     3.16314    0.07626     5.23882
      N   17   -0.51427      1.99914     5.50213    0.01301     7.51427
      H   18    0.34575      0.00000     0.64879    0.00547     0.65425
      N   19   -0.78791      1.99938     5.76471    0.02381     7.78791
      H   20    0.29873      0.00000     0.69409    0.00718     0.70127
      O   21   -0.66782      1.99961     6.65141    0.01680     8.66782
      H   22    0.43291      0.00000     0.56089    0.00620     0.56709
      O   23   -0.78870      1.99977     6.78046    0.00847     8.78870
      O   24   -0.79669      1.99973     6.78674    0.01022     8.79669
      H   25    0.30853      0.00000     0.68486    0.00661     0.69147
      H   26    0.16995      0.00000     0.82649    0.00356     0.83005
      H   27    0.16602      0.00000     0.83076    0.00322     0.83398
 =======================================================================
   * Total *   -1.00000     31.98649    83.61159    0.40192   116.00000

 ******   21 imaginary frequencies (negative Signs) ******

                      1                      2                      3
                      A                      A                      A
 Frequencies --  -2232.6042             -1878.0794             -1828.2676
 Red. masses --      1.0708                 1.0839                 1.0632
 Frc consts  --      3.1446                 2.2525                 2.0938
 IR Inten    --    126.9387                83.2342               188.3215

                      4                      5                      6
                      A                      A                      A
 Frequencies --  -1680.5140             -1500.7461             -1462.2990
 Red. masses --      1.0372                 1.1356                 1.0714
 Frc consts  --      1.7258                 1.5069                 1.3498
 IR Inten    --     61.2978               111.1040                59.1951

                      7                      8                      9
                      A                      A                      A
 Frequencies --  -1438.0914             -1371.4204             -1280.9053
 Red. masses --      1.0724                 1.0493                 1.0460
 Frc consts  --      1.3067                 1.1627                 1.0112
 IR Inten    --     12.6207                 8.3056                 0.0381

                     10                     11                     12
                      A                      A                      A
 Frequencies --  -1217.2540             -1096.0854             -1082.1723
 Red. masses --      1.0511                 1.0427                 1.0434
 Frc consts  --      0.9176                 0.7380                 0.7199
 IR Inten    --     21.0921                 1.4615                 1.7285

                     13                     14                     15
                      A                      A                      A
 Frequencies --   -954.4990              -908.7377              -864.6102
 Red. masses --      1.0829                 1.0568                 1.0846
 Frc consts  --      0.5813                 0.5142                 0.4777
 IR Inten    --      2.4416                 8.3638                 1.3886

                     16                     17                     18
                      A                      A                      A
 Frequencies --   -818.3227              -458.2842              -398.3624
 Red. masses --      1.0614                 1.3812                 1.5258
 Frc consts  --      0.4188                 0.1709                 0.1427
 IR Inten    --      4.2530                 5.2075                 6.1855

                     19                     20                     21
                      A                      A                      A
 Frequencies --   -348.3465              -246.1644              -120.1593
 Red. masses --      1.8656                 2.5859                15.0970
 Frc consts  --      0.1334                 0.0923                 0.1284
 IR Inten    --      0.8813                 0.2646                 0.7822

                     22                     23                     24
                      A                      A                      A
 Frequencies --    104.4505               165.8741               173.9426
 Red. masses --      8.9547                 7.7220                 7.1737
 Frc consts  --      0.0576                 0.1252                 0.1279
 IR Inten    --      5.8404                 3.1788                23.9342

                     25                     26                     27
                      A                      A                      A
 Frequencies --    261.5837               316.1645               354.9309
 Red. masses --      8.2352                 4.2933                 7.5671
 Frc consts  --      0.3320                 0.2529                 0.5617
 IR Inten    --      1.5383                 0.9895                 0.0841

                     28                     29                     30
                      A                      A                      A
 Frequencies --    381.3829               468.3002               477.1514
 Red. masses --      4.9314                 4.7862                 3.4193
 Frc consts  --      0.4226                 0.6184                 0.4587
 IR Inten    --      0.6853                 2.2939                 2.3789

                     31                     32                     33
                      A                      A                      A
 Frequencies --    487.1619               529.2445               540.2569
 Red. masses --      6.1010                 9.3448                 5.4721
 Frc consts  --      0.8531                 1.5422                 0.9410
 IR Inten    --      2.7417                 0.3977                 0.3749

                     34                     35                     36
                      A                      A                      A
 Frequencies --    594.6703               640.7409               681.3600
 Red. masses --      6.1175                 3.9122                 5.3298
 Frc consts  --      1.2746                 0.9463                 1.4578
 IR Inten    --      9.8169                 2.4733                 4.3620

                     37                     38                     39
                      A                      A                      A
 Frequencies --    689.3808               714.7738               760.0228
 Red. masses --      5.9997                 7.4162                 1.8854
 Frc consts  --      1.6800                 2.2324                 0.6417
 IR Inten    --      1.6780                 7.8738                46.6746

                     40                     41                     42
                      A                      A                      A
 Frequencies --    775.8663               792.8568               824.0554
 Red. masses --      5.6950                 6.6671                 4.8592
 Frc consts  --      2.0199                 2.4693                 1.9442
 IR Inten    --      8.6797                 2.4941                 6.4085

                     43                     44                     45
                      A                      A                      A
 Frequencies --    851.7710               853.6892               872.7372
 Red. masses --      5.0096                 4.3219                 3.4693
 Frc consts  --      2.1414                 1.8558                 1.5569
 IR Inten    --      0.9262                 9.9081                13.1876

                     46                     47                     48
                      A                      A                      A
 Frequencies --    892.1428               914.9259               987.8664
 Red. masses --      2.5447                 5.2554                 1.2366
 Frc consts  --      1.1933                 2.5919                 0.7110
 IR Inten    --     15.4541                 2.4965                19.5631

                     49                     50                     51
                      A                      A                      A
 Frequencies --   1019.1493              1051.9701              1171.3410
 Red. masses --      3.5426                 5.3693                 6.2633
 Frc consts  --      2.1679                 3.5009                 5.0632
 IR Inten    --     29.7665                19.6212                 0.4521

                     52                     53                     54
                      A                      A                      A
 Frequencies --   1185.7994              1209.9071              1369.4076
 Red. masses --      6.1989                 7.8684                 7.9062
 Frc consts  --      5.1355                 6.7864                 8.7354
 IR Inten    --     30.8890                 5.1729                 8.2515

                     55                     56                     57
                      A                      A                      A
 Frequencies --   1376.2491              1423.8887              1439.7546
 Red. masses --      8.6401                 9.0529                11.3597
 Frc consts  --      9.6419                10.8140                13.8738
 IR Inten    --     38.4277               142.2224               160.0655

                     58                     59                     60
                      A                      A                      A
 Frequencies --   1470.6955              1506.6142              1586.4033
 Red. masses --      9.4734                10.4019                10.4226
 Frc consts  --     12.0726                13.9113                15.4545
 IR Inten    --     24.3051                57.8169                81.8077

                     61                     62                     63
                      A                      A                      A
 Frequencies --   1631.6494              1655.9454              1739.7453
 Red. masses --     10.7590                10.1300                11.4191
 Frc consts  --     16.8763                16.3664                20.3636
 IR Inten    --     29.9411                 2.0977                31.3129

                     64                     65                     66
                      A                      A                      A
 Frequencies --   1797.1730              4332.9820              4412.1569
 Red. masses --     12.7945                 1.0866                 1.0607
 Frc consts  --     24.3475                12.0196                12.1664
 IR Inten    --    408.5214                45.8816                27.2281

                     67                     68                     69
                      A                      A                      A
 Frequencies --   4528.3006              5034.3083              5046.8670
 Red. masses --      1.1074                 1.0881                 1.0913
 Frc consts  --     13.3791                16.2474                16.3765
 IR Inten    --      8.8353                 2.5167                 0.8448

                     70                     71                     72
                      A                      A                      A
 Frequencies --   5047.3485              5058.7218              5267.1446
 Red. masses --      1.0900                 1.0902                 1.0502
 Frc consts  --     16.3613                16.4377                17.1661
 IR Inten    --     16.2185                 0.6835                 1.9826

                     73                     74                     75
                      A                      A                      A
 Frequencies --   5408.7746              5873.2021              6561.6306
 Red. masses --      1.0955                 1.0780                 1.0673
 Frc consts  --     18.8828                21.9086                27.0752
 IR Inten    --      7.7667                84.6393               150.0589

 - Thermochemistry -
 -------------------
 Temperature   298.150 Kelvin.  Pressure   1.00000 Atm.
 Atom     1 has atomic number  6 and mass  12.00000

 Molecular mass:   219.07697 amu.
 Principal axes and moments of inertia in atomic units:
                           1         2         3
     Eigenvalues --  2397.729663899.661585607.19916
           X            0.99944  -0.03327  -0.00244
           Y            0.03326   0.99944  -0.00420
           Z            0.00258   0.00411   0.99999
 This molecule is an asymmetric top.
 Rotational symmetry number  1.
 Warning -- assumption of classical behavior for rotation
           may cause significant error
 Rotational temperatures (Kelvin)      0.03612     0.02221     0.01545
 Rotational constants (GHZ):           0.75269     0.46279     0.32186
   21 imaginary frequencies ignored.
 Zero-point vibrational energy     570106.9 (Joules/Mol)
                                  136.25882 (Kcal/Mol)
 Warning -- explicit consideration of  13 degrees of freedom as
           vibrations may cause significant error
 Vibrational temperatures:    150.28   238.66   250.26   376.36   454.89
          (Kelvin)            510.67   548.72   673.78   686.51   700.92
                              761.46   777.31   855.60   921.88   980.33
                              991.87  1028.40  1093.50  1116.30  1140.74
                             1185.63  1225.51  1228.27  1255.67  1283.59
                             1316.37  1421.32  1466.33  1513.55  1685.30
                             1706.10  1740.79  1970.27  1980.12  2048.66
                             2071.49  2116.00  2167.68  2282.48  2347.58
                             2382.54  2503.11  2585.73  6234.19  6348.11
                             6515.21  7243.25  7261.32  7262.01  7278.37
                             7578.25  7782.02  8450.23  9440.72

 Zero-point correction=                           0.217142 (Hartree/Particle)
 Thermal correction to Energy=                    0.226075
 Thermal correction to Enthalpy=                  0.227020
 Thermal correction to Gibbs Free Energy=         0.181869
 Sum of electronic and zero-point Energies=           -759.176584
 Sum of electronic and thermal Energies=              -759.167651
 Sum of electronic and thermal Enthalpies=            -759.166706
 Sum of electronic and thermal Free Energies=         -759.211857

                     E (Thermal)             CV                S
                      KCal/Mol        Cal/Mol-Kelvin    Cal/Mol-Kelvin
 Total                  141.864             36.717             95.027
 Electronic               0.000              0.000              0.000
 Translational            0.889              2.981             42.056
 Rotational               0.889              2.981             32.328
 Vibrational            140.087             30.756             20.644
 Vibration     1          0.605              1.946              3.370
 Vibration     2          0.624              1.884              2.482
 Vibration     3          0.627              1.875              2.392
 Vibration     4          0.669              1.743              1.651
 Vibration     5          0.703              1.643              1.330
 Vibration     6          0.731              1.565              1.144
 Vibration     7          0.751              1.510              1.034
 Vibration     8          0.825              1.320              0.742
 Vibration     9          0.834              1.301              0.718
 Vibration    10          0.843              1.279              0.691
 Vibration    11          0.884              1.185              0.589
 Vibration    12          0.895              1.161              0.565
 Vibration    13          0.952              1.043              0.459

 Normal termination of Gaussian 16 at Mon Mar  6 10:51:29 2023.
