 Gaussian 16, Revision C.01,
 Gaussian 16:  ES64L-G16RevC.01  3-Jul-2019

 ----------------------------------------------------------------------
 #p pop=(regular,nbo,savenbos) freq=noraman def2svp empiricaldispersion
 =gd3bj output=wfx pbe1pbe
 ----------------------------------------------------------------------

 ----------------------------------------
 DOYPEM_Complex_0_Ligand_1_NN_Cu_oriented
 ----------------------------------------
 Symbolic Z-matrix:
 Charge =  0 Multiplicity = 1

                         Standard orientation:
 ---------------------------------------------------------------------
 Center     Atomic      Atomic             Coordinates (Angstroms)
 Number     Number       Type             X           Y           Z
 ---------------------------------------------------------------------
      1          7           0        1.316564   -0.539612    0.115207
      2          7           0       -1.414268   -0.404309   -0.621727
      3          6           0       -0.041944    1.600009    0.010511
      4          6           0        0.526954    2.473777   -1.130811
      5          6           0       -0.483816    2.486046    1.192469
      6          8           0        1.927475    1.267273    1.273611
      7          6           0        1.060300    0.671832    0.455573
      8          6           0        2.871230    0.227496    1.700248
      9          6           0        2.663600   -0.895658    0.676827
     10          6           0        3.777274   -0.960281   -0.395411
     11          6           0        3.529597   -2.108385   -1.369525
     12          6           0        5.113746   -1.221124    0.321520
     13          6           0        3.867097    0.350507   -1.173405
     14          6           0       -1.247645    0.858041   -0.492921
     15          6           0       -2.856598   -0.637372   -0.935334
     16          6           0       -3.611215   -1.179540    0.300799
     17          6           0       -5.052401   -1.491368   -0.124016
     18          6           0       -2.967946   -2.481585    0.792231
     19          6           0       -3.604901   -0.164905    1.447895
     20          1           0        0.792642    1.896314   -1.918811
     21          1           0       -0.167142    3.158731   -1.354251
     22          1           0        1.285258    2.891373   -0.732498
     23          1           0       -0.745763    1.930605    2.014535
     24          1           0        0.216758    3.049592    1.438515
     25          1           0        3.718306    0.692219    1.652436
     26          1           0        2.635628   -1.731426    1.134828
     27          1           0        4.317854   -2.112062   -2.040790
     28          1           0        3.475388   -2.938475   -0.951744
     29          1           0        2.697120   -1.993388   -1.876698
     30          1           0        5.858578   -1.350585   -0.268734
     31          1           0        5.404701   -0.480447    0.934822
     32          1           0        5.145790   -2.034363    0.767689
     33          1           0        4.573945    0.330525   -1.799716
     34          1           0        3.080858    0.488077   -1.682716
     35          1           0        4.041327    1.108401   -0.618885
     36          1           0       -2.936641   -1.303735   -1.648611
     37          1           0       -5.512731   -1.876870    0.671645
     38          1           0       -5.059358   -2.184360   -0.866560
     39          1           0       -3.492610   -2.849755    1.562726
     40          1           0       -2.924011   -3.176592    0.119891
     41          1           0       -2.028721   -2.386725    1.036276
     42          1           0       -2.711041    0.102176    1.745243
     43          8           0       -2.283658    1.646591   -0.797069
     44          6           0       -3.290501    0.760228   -1.400453
     45          1           0       -4.136257    1.058934   -1.107110
     46          1           0       -3.192918    0.886843   -2.332662
     47          1           0       -4.023129   -0.524109    2.245436
     48          1           0       -4.116053    0.652759    1.231098
     49          1           0        2.580363   -0.037128    2.630459
     50          1           0       -5.528120   -0.727332   -0.401914
     51          1           0       -1.233618    3.031016    0.892230
 ---------------------------------------------------------------------

 SCF Done:  E(RPBE1PBE) =  -923.700600897     A.U. after   14 cycles

 The electronic state is 1-A.
 Alpha  occ. eigenvalues --  -19.23568 -19.23460 -14.34858 -14.34661 -10.30448
 Alpha  occ. eigenvalues --  -10.30294 -10.26159 -10.26115 -10.25554 -10.24108
 Alpha  occ. eigenvalues --  -10.23906 -10.23565 -10.23439 -10.19969 -10.19116
 Alpha  occ. eigenvalues --  -10.18574 -10.18004 -10.17670 -10.17459 -10.17053
 Alpha  occ. eigenvalues --  -10.16772  -1.10440  -1.10151  -0.90294  -0.89483
 Alpha  occ. eigenvalues --   -0.86543  -0.83892  -0.83175  -0.78032  -0.76671
 Alpha  occ. eigenvalues --   -0.73833  -0.73408  -0.72684  -0.72535  -0.71984
 Alpha  occ. eigenvalues --   -0.67370  -0.66536  -0.65667  -0.60104  -0.57501
 Alpha  occ. eigenvalues --   -0.56801  -0.53423  -0.52693  -0.52552  -0.51613
 Alpha  occ. eigenvalues --   -0.49864  -0.48010  -0.47625  -0.47140  -0.46749
 Alpha  occ. eigenvalues --   -0.46665  -0.46196  -0.46083  -0.45011  -0.44812
 Alpha  occ. eigenvalues --   -0.43815  -0.43298  -0.43101  -0.41043  -0.40724
 Alpha  occ. eigenvalues --   -0.40488  -0.40373  -0.39902  -0.39335  -0.38759
 Alpha  occ. eigenvalues --   -0.38094  -0.37521  -0.37297  -0.36977  -0.35947
 Alpha  occ. eigenvalues --   -0.34667  -0.34399  -0.34233  -0.33640  -0.33272
 Alpha  occ. eigenvalues --   -0.32969  -0.32791  -0.27354  -0.24771  -0.24136
 Alpha  occ. eigenvalues --   -0.23613
 Alpha virt. eigenvalues --    0.03767   0.04203   0.07213   0.08082   0.08900
 Alpha virt. eigenvalues --    0.10884   0.10973   0.11787   0.11932   0.12233
 Alpha virt. eigenvalues --    0.12359   0.13308   0.14039   0.14115   0.14359

 Mulliken charges:
               1
     1  N   -0.215764
     2  N   -0.210650
     3  C   -0.421518
     4  C    0.224868
     5  C    0.259766
     6  O   -0.378189
     7  C    0.175295
     8  C    0.398560
     9  C    0.059859
    10  C   -0.471083
    11  C    0.236126
    12  C    0.247676
    13  C    0.308893
    14  C    0.182863
    15  C    0.019894
    16  C   -0.459581
    17  C    0.219593
    18  C    0.231621
    19  C    0.230188
    20  H    0.026475
    21  H    0.011128
    22  H   -0.021640
    23  H    0.014338
    24  H   -0.038783
    25  H   -0.028355
    26  H   -0.053509
    27  H   -0.002951
    28  H   -0.053658
    29  H   -0.005236
    30  H   -0.042186
    31  H   -0.017744
    32  H   -0.055317
    33  H   -0.051023
    34  H   -0.039274
    35  H   -0.049312
    36  H   -0.038287
    37  H   -0.011072
    38  H   -0.002650
    39  H   -0.016525
    40  H   -0.040093
    41  H   -0.008598
    42  H   -0.014803
    43  O   -0.386058
    44  C    0.480874
    45  H   -0.049055
    46  H   -0.032931
    47  H   -0.035519
    48  H   -0.028446
    49  H    0.008790
    50  H   -0.050421
    51  H   -0.006577
 Sum of Mulliken charges =  -0.00000

 Dipole moment (field-independent basis, Debye):
    X=              0.0751    Y=              0.7085    Z=              0.3535  Tot=              0.7953
 Quadrupole moment (field-independent basis, Debye-Ang):
   XX=           -111.6118   YY=           -128.3096   ZZ=           -122.9676
   XY=             -0.9881   XZ=              4.8229   YZ=             -2.1868

  Exact polarizability:     198.116      -1.516     172.596       3.762       1.528     151.275
 Approx polarizability:     233.689      -3.134     259.017       7.608       8.189     215.337

 Summary of Natural Population Analysis:

                                       Natural Population
                Natural  -----------------------------------------------
    Atom  No    Charge         Core      Valence    Rydberg      Total
 -----------------------------------------------------------------------
      N    1   -0.54579      1.99929     5.53054    0.01597     7.54579
      N    2   -0.54435      1.99930     5.52868    0.01638     7.54435
      C    3   -0.14267      1.99889     4.12667    0.01711     6.14267
      C    4   -0.53732      1.99915     4.52578    0.01239     6.53732
      C    5   -0.53780      1.99911     4.52469    0.01400     6.53780
      O    6   -0.58491      1.99967     6.57487    0.01037     8.58491
      C    7    0.62122      1.99904     3.33104    0.04870     5.37878
      C    8   -0.00905      1.99902     3.99168    0.01835     6.00905
      C    9   -0.02625      1.99882     4.00231    0.02511     6.02625
      C   10   -0.04182      1.99910     4.02697    0.01575     6.04182
      C   11   -0.55825      1.99911     4.54519    0.01394     6.55825
      C   12   -0.56429      1.99904     4.55086    0.01439     6.56429
      C   13   -0.55253      1.99909     4.53968    0.01376     6.55253
      C   14    0.61625      1.99901     3.33596    0.04878     5.38375
      C   15   -0.04105      1.99888     4.01726    0.02491     6.04105
      C   16   -0.04430      1.99908     4.02936    0.01585     6.04430
      C   17   -0.56627      1.99913     4.55378    0.01335     6.56627
      C   18   -0.57024      1.99913     4.55673    0.01439     6.57024
      C   19   -0.57794      1.99912     4.56495    0.01387     6.57794
      H   20    0.21071      0.00000     0.78669    0.00260     0.78929
      H   21    0.20729      0.00000     0.78975    0.00297     0.79271
      H   22    0.19123      0.00000     0.80528    0.00349     0.80877
      H   23    0.21091      0.00000     0.78676    0.00234     0.78909
      H   24    0.19056      0.00000     0.80657    0.00287     0.80944
      H   25    0.17108      0.00000     0.82589    0.00304     0.82892
      H   26    0.17805      0.00000     0.81691    0.00504     0.82195
      H   27    0.19950      0.00000     0.79778    0.00272     0.80050
      H   28    0.17757      0.00000     0.81975    0.00268     0.82243
      H   29    0.20831      0.00000     0.78841    0.00328     0.79169
      H   30    0.20039      0.00000     0.79680    0.00281     0.79961
      H   31    0.19458      0.00000     0.80300    0.00242     0.80542
      H   32    0.18259      0.00000     0.81446    0.00295     0.81741
      H   33    0.19027      0.00000     0.80706    0.00267     0.80973
      H   34    0.19223      0.00000     0.80441    0.00336     0.80777
      H   35    0.18560      0.00000     0.81158    0.00283     0.81440
      H   36    0.19298      0.00000     0.80225    0.00477     0.80702
      H   37    0.20255      0.00000     0.79461    0.00285     0.79745
      H   38    0.20084      0.00000     0.79650    0.00267     0.79916
      H   39    0.19407      0.00000     0.80332    0.00262     0.80593
      H   40    0.19267      0.00000     0.80460    0.00273     0.80733
      H   41    0.21347      0.00000     0.78307    0.00347     0.78653
      H   42    0.20231      0.00000     0.79465    0.00304     0.79769
      O   43   -0.58528      1.99967     6.57542    0.01020     8.58528
      C   44    0.02519      1.99886     3.95730    0.01865     5.97481
      H   45    0.16105      0.00000     0.83603    0.00292     0.83895
      H   46    0.16024      0.00000     0.83673    0.00304     0.83976
      H   47    0.19742      0.00000     0.79983    0.00274     0.80258
      H   48    0.19370      0.00000     0.80365    0.00265     0.80630
      H   49    0.18370      0.00000     0.81332    0.00299     0.81630
      H   50    0.17708      0.00000     0.82024    0.00268     0.82292
      H   51    0.20452      0.00000     0.79248    0.00299     0.79548
 =======================================================================
   * Total *   -0.00000     41.98152   119.53205    0.48643   162.00000

 ******   33 imaginary frequencies (negative Signs) ******

                      1                      2                      3
                      A                      A                      A
 Frequencies --  -1498.9806             -1492.1206             -1382.5269
 Red. masses --      1.0201                 1.0104                 1.0188
 Frc consts  --      1.3505                 1.3254                 1.1473
 IR Inten    --      3.0271                 1.3087                 4.9021

                      4                      5                      6
                      A                      A                      A
 Frequencies --  -1380.2214             -1295.0328             -1266.8616
 Red. masses --      1.0197                 1.0153                 1.0101
 Frc consts  --      1.1445                 1.0033                 0.9551
 IR Inten    --      4.5990                 1.6938                 0.5792

                      7                      8                      9
                      A                      A                      A
 Frequencies --  -1261.8408             -1257.4074             -1210.9012
 Red. masses --      1.0285                 1.0101                 1.0134
 Frc consts  --      0.9648                 0.9410                 0.8755
 IR Inten    --      4.3719                 0.2405                 3.5657

                     10                     11                     12
                      A                      A                      A
 Frequencies --  -1205.4568             -1156.0916             -1129.9034
 Red. masses --      1.0395                 1.0386                 1.0496
 Frc consts  --      0.8900                 0.8178                 0.7895
 IR Inten    --      1.5788                14.7758                 1.2824

                     13                     14                     15
                      A                      A                      A
 Frequencies --  -1087.2253             -1081.8344             -1032.7537
 Red. masses --      1.0439                 1.0538                 1.0533
 Frc consts  --      0.7270                 0.7267                 0.6619
 IR Inten    --      6.6331                 8.5925                 3.9938

                     16                     17                     18
                      A                      A                      A
 Frequencies --   -952.5207              -899.6330              -890.2428
 Red. masses --      1.0452                 1.0558                 1.0591
 Frc consts  --      0.5587                 0.5035                 0.4945
 IR Inten    --      6.0382                 8.3159                 2.7702

                     19                     20                     21
                      A                      A                      A
 Frequencies --   -882.8226              -863.2570              -801.9099
 Red. masses --      1.0389                 1.0814                 1.0833
 Frc consts  --      0.4771                 0.4748                 0.4104
 IR Inten    --      6.3256                 7.5490                 5.7698

                     22                     23                     24
                      A                      A                      A
 Frequencies --   -796.4727              -746.9707              -715.2858
 Red. masses --      1.1021                 1.0507                 1.0542
 Frc consts  --      0.4119                 0.3454                 0.3178
 IR Inten    --      2.3564                 6.3032                 8.6945

                     25                     26                     27
                      A                      A                      A
 Frequencies --   -710.3603              -700.9524              -670.0810
 Red. masses --      1.1061                 1.2018                 1.1740
 Frc consts  --      0.3289                 0.3479                 0.3106
 IR Inten    --     10.4495                 2.9523                 4.3337

                     28                     29                     30
                      A                      A                      A
 Frequencies --   -634.2217              -578.3476              -542.5433
 Red. masses --      1.0696                 1.2444                 1.1355
 Frc consts  --      0.2535                 0.2452                 0.1969
 IR Inten    --      1.1983                 0.4790                 3.4095

                     31                     32                     33
                      A                      A                      A
 Frequencies --   -412.0517              -323.6216              -172.2582
 Red. masses --      1.5846                 1.9048                 2.6416
 Frc consts  --      0.1585                 0.1175                 0.0462
 IR Inten    --      2.8216                 3.4044                 0.6796

                     34                     35                     36
                      A                      A                      A
 Frequencies --     96.7466               107.9472               179.4129
 Red. masses --      2.8075                 1.4720                 5.3027
 Frc consts  --      0.0155                 0.0101                 0.1006
 IR Inten    --      3.3455                11.6797                 0.6100

                     37                     38                     39
                      A                      A                      A
 Frequencies --    200.2031               221.7936               260.3685
 Red. masses --      4.3327                 4.4011                 4.4523
 Frc consts  --      0.1023                 0.1276                 0.1778
 IR Inten    --      0.5646                 0.7855                 0.1887

                     40                     41                     42
                      A                      A                      A
 Frequencies --    293.1119               297.0734               320.4455
 Red. masses --      4.8594                 4.9703                 4.4562
 Frc consts  --      0.2460                 0.2584                 0.2696
 IR Inten    --      0.3410                 0.5025                 2.3600

                     43                     44                     45
                      A                      A                      A
 Frequencies --    356.0951               369.1870               396.1679
 Red. masses --      6.0787                 4.9574                 3.4416
 Frc consts  --      0.4541                 0.3981                 0.3183
 IR Inten    --      0.4156                 0.8975                 2.7642

                     46                     47                     48
                      A                      A                      A
 Frequencies --    409.7200               427.3942               435.8323
 Red. masses --      4.7383                 4.8803                 3.7844
 Frc consts  --      0.4687                 0.5252                 0.4235
 IR Inten    --      0.2199                 2.1953                 4.4463

                     49                     50                     51
                      A                      A                      A
 Frequencies --    477.2073               489.1440               515.0555
 Red. masses --      4.8597                 5.2151                 3.9097
 Frc consts  --      0.6520                 0.7352                 0.6111
 IR Inten    --      2.5728                 0.4047                 1.0161

                     52                     53                     54
                      A                      A                      A
 Frequencies --    534.9110               563.9606               598.0054
 Red. masses --      3.2970                 4.3757                 2.1925
 Frc consts  --      0.5558                 0.8200                 0.4620
 IR Inten    --      3.0266                 4.0773                 2.0735

                     55                     56                     57
                      A                      A                      A
 Frequencies --    605.0485               616.6836               640.9242
 Red. masses --      2.4938                 3.3259                 3.6958
 Frc consts  --      0.5379                 0.7452                 0.8945
 IR Inten    --     10.9280                 1.1027                 4.4278

                     58                     59                     60
                      A                      A                      A
 Frequencies --    649.2566               656.5388               661.2898
 Red. masses --      3.1317                 2.4701                 2.2073
 Frc consts  --      0.7778                 0.6273                 0.5687
 IR Inten    --      1.1190                28.7008                 2.7254

                     61                     62                     63
                      A                      A                      A
 Frequencies --    668.2459               684.7441               689.2756
 Red. masses --      3.7316                 2.8154                 4.0230
 Frc consts  --      0.9818                 0.7778                 1.1261
 IR Inten    --     13.1878                14.6113                 5.3288

                     64                     65                     66
                      A                      A                      A
 Frequencies --    721.3557               722.0976               733.5730
 Red. masses --      2.4295                 3.0737                 1.4885
 Frc consts  --      0.7448                 0.9443                 0.4719
 IR Inten    --      8.9369                 5.5450                19.1645

                     67                     68                     69
                      A                      A                      A
 Frequencies --    738.2494               776.9760               781.7734
 Red. masses --      1.3856                 3.1992                 4.7514
 Frc consts  --      0.4449                 1.1379                 1.7109
 IR Inten    --      2.4788                 8.5936                 7.2022

                     70                     71                     72
                      A                      A                      A
 Frequencies --    800.5076               802.6255               812.1620
 Red. masses --      2.7188                 1.5532                 1.6448
 Frc consts  --      1.0265                 0.5895                 0.6392
 IR Inten    --      6.9952                18.3441                 5.5574

                     73                     74                     75
                      A                      A                      A
 Frequencies --    819.8672               837.9726               845.9320
 Red. masses --      5.4118                 1.2369                 1.2893
 Frc consts  --      2.1433                 0.5117                 0.5436
 IR Inten    --      1.6231                18.1040                 8.7656

                     76                     77                     78
                      A                      A                      A
 Frequencies --    865.4222               879.4176               890.5445
 Red. masses --      1.7264                 1.4700                 1.4247
 Frc consts  --      0.7618                 0.6698                 0.6657
 IR Inten    --     14.6629                 6.1228                40.9267

                     79                     80                     81
                      A                      A                      A
 Frequencies --    911.2393               917.8148               945.2737
 Red. masses --      1.1049                 5.1002                 4.9467
 Frc consts  --      0.5405                 2.5313                 2.6043
 IR Inten    --     11.8874                13.9050                46.7155

                     82                     83                     84
                      A                      A                      A
 Frequencies --    951.2589               964.0365               977.1808
 Red. masses --      3.3686                 3.8786                 2.7151
 Frc consts  --      1.7960                 2.1238                 1.5275
 IR Inten    --     21.0771                27.2428                12.7516

                     85                     86                     87
                      A                      A                      A
 Frequencies --    982.5197               995.0921              1014.8808
 Red. masses --      2.9760                 2.6098                 2.2736
 Frc consts  --      1.6927                 1.5226                 1.3797
 IR Inten    --      7.0533                 6.5838                11.3971

                     88                     89                     90
                      A                      A                      A
 Frequencies --   1029.3729              1059.4437              1061.6186
 Red. masses --      2.6036                 1.8804                 2.3465
 Frc consts  --      1.6254                 1.2435                 1.5582
 IR Inten    --      7.6060                 5.8753                17.9642

                     91                     92                     93
                      A                      A                      A
 Frequencies --   1082.9313              1092.6154              1099.7609
 Red. masses --      1.5772                 1.3966                 1.2924
 Frc consts  --      1.0898                 0.9823                 0.9210
 IR Inten    --      6.6113                 1.0162                 4.3829

                     94                     95                     96
                      A                      A                      A
 Frequencies --   1101.5992              1115.6126              1120.6167
 Red. masses --      1.3501                 1.2850                 1.2589
 Frc consts  --      0.9653                 0.9423                 0.9315
 IR Inten    --     30.3940                34.4798                 5.8804

                     97                     98                     99
                      A                      A                      A
 Frequencies --   1124.2840              1134.9992              1139.8488
 Red. masses --      1.1162                 1.2119                 1.6822
 Frc consts  --      0.8313                 0.9198                 1.2877
 IR Inten    --     11.1475                11.2362                 3.0476

                    100                    101                    102
                      A                      A                      A
 Frequencies --   1147.9731              1171.9830              1179.5738
 Red. masses --      1.6718                 2.4803                 2.0614
 Frc consts  --      1.2981                 2.0073                 1.6899
 IR Inten    --      2.3743                 7.8632               108.8973

                    103                    104                    105
                      A                      A                      A
 Frequencies --   1206.0292              1210.9060              1231.6559
 Red. masses --      1.0634                 1.3197                 1.5459
 Frc consts  --      0.9113                 1.1401                 1.3817
 IR Inten    --      2.9437                15.5406                 7.5718

                    106                    107                    108
                      A                      A                      A
 Frequencies --   1237.9429              1254.6302              1261.1088
 Red. masses --      1.6292                 2.1617                 2.3605
 Frc consts  --      1.4711                 2.0049                 2.2118
 IR Inten    --     48.7092                 2.4723                 1.2535

                    109                    110                    111
                      A                      A                      A
 Frequencies --   1269.0522              1290.4329              1290.7298
 Red. masses --      2.9616                 2.3960                 3.5523
 Frc consts  --      2.8102                 2.3508                 3.4868
 IR Inten    --      0.0211                 0.9668                 1.9446

                    112                    113                    114
                      A                      A                      A
 Frequencies --   1320.0606              1321.5636              1387.9090
 Red. masses --      2.4535                 2.6599                 8.4954
 Frc consts  --      2.5189                 2.7371                 9.6417
 IR Inten    --      1.5855                 1.3073                37.4206

                    115                    116                    117
                      A                      A                      A
 Frequencies --   1443.9906              1697.9870              1733.9596
 Red. masses --      7.5162                12.0612                12.1816
 Frc consts  --      9.2337                20.4884                21.5790
 IR Inten    --    125.1555                87.8884               226.7750

                    118                    119                    120
                      A                      A                      A
 Frequencies --   3725.2695              3834.4326              3931.6539
 Red. masses --      1.0708                 1.0701                 1.0628
 Frc consts  --      8.7558                 9.2695                 9.6794
 IR Inten    --     22.6563                 5.8126                13.0369

                    121                    122                    123
                      A                      A                      A
 Frequencies --   3958.6960              4012.8103              4063.5169
 Red. masses --      1.0500                 1.0747                 1.0712
 Frc consts  --      9.6952                10.1963                10.4213
 IR Inten    --      3.5167                13.2628                12.3360

                    124                    125                    126
                      A                      A                      A
 Frequencies --   4079.4219              4159.5755              4173.0711
 Red. masses --      1.0633                 1.1017                 1.0896
 Frc consts  --     10.4258                11.2308                11.1793
 IR Inten    --     17.0515                 2.2355                 9.9741

                    127                    128                    129
                      A                      A                      A
 Frequencies --   4219.5969              4349.5815              4378.3168
 Red. masses --      1.0519                 1.0817                 1.0882
 Frc consts  --     11.0351                12.0579                12.2910
 IR Inten    --      9.1615                 2.4664                 9.7112

                    130                    131                    132
                      A                      A                      A
 Frequencies --   4397.6673              4432.8695              4436.8583
 Red. masses --      1.0962                 1.0856                 1.0819
 Frc consts  --     12.4902                12.5684                12.5486
 IR Inten    --      4.8618                 1.9147                 2.4689

                    133                    134                    135
                      A                      A                      A
 Frequencies --   4506.1219              4524.1885              4550.1280
 Red. masses --      1.0954                 1.0940                 1.0948
 Frc consts  --     13.1042                13.1938                13.3551
 IR Inten    --     10.5442                 8.4932                 3.7543

                    136                    137                    138
                      A                      A                      A
 Frequencies --   4595.5100              4613.1990              4702.6254
 Red. masses --      1.0432                 1.0831                 1.0881
 Frc consts  --     12.9800                13.5812                14.1772
 IR Inten    --      5.8211                11.2403                 6.7438

                    139                    140                    141
                      A                      A                      A
 Frequencies --   4715.6287              4738.9238              4793.5752
 Red. masses --      1.0918                 1.0576                 1.0990
 Frc consts  --     14.3039                13.9932                14.8793
 IR Inten    --      1.5965                 9.6585                 5.4516

                    142                    143                    144
                      A                      A                      A
 Frequencies --   4845.2065              4854.5656              4897.3053
 Red. masses --      1.1023                 1.0895                 1.1132
 Frc consts  --     15.2463                15.1285                15.7300
 IR Inten    --      5.8776                 5.4356                 1.8050

                    145                    146                    147
                      A                      A                      A
 Frequencies --   4989.4857              5001.5644              5029.0296
 Red. masses --      1.0902                 1.0889                 1.0875
 Frc consts  --     15.9906                16.0489                16.2049
 IR Inten    --      0.5796                 4.0490                 5.9853

 - Thermochemistry -
 -------------------
 Temperature   298.150 Kelvin.  Pressure   1.00000 Atm.
 Atom     1 has atomic number  7 and mass  14.00307

 Molecular mass:   294.23073 amu.
 Principal axes and moments of inertia in atomic units:
                           1         2         3
     Eigenvalues --  3200.36703********************
           X            0.99995   0.00254  -0.00921
           Y           -0.00256   0.99999  -0.00194
           Z            0.00921   0.00196   0.99996
 This molecule is an asymmetric top.
 Rotational symmetry number  1.
 Warning -- assumption of classical behavior for rotation
           may cause significant error
 Rotational temperatures (Kelvin)      0.02706     0.00843     0.00762
 Rotational constants (GHZ):           0.56392     0.17572     0.15877
   33 imaginary frequencies ignored.
 Zero-point vibrational energy    1222823.7 (Joules/Mol)
                                  292.26187 (Kcal/Mol)
 Warning -- explicit consideration of  23 degrees of freedom as
           vibrations may cause significant error
 Vibrational temperatures:    139.20   155.31   258.14   288.05   319.11
          (Kelvin)            374.61   421.72   427.42   461.05   512.34
                              531.18   570.00   589.50   614.92   627.07
                              686.59   703.77   741.05   769.62   811.41
                              860.40   870.53   887.27   922.15   934.14
                              944.61   951.45   961.46   985.19   991.71
                             1037.87  1038.94  1055.45  1062.18  1117.90
                             1124.80  1151.75  1154.80  1168.52  1179.61
                             1205.66  1217.11  1245.15  1265.29  1281.29
                             1311.07  1320.53  1360.04  1368.65  1387.03
                             1405.95  1413.63  1431.72  1460.19  1481.04
                             1524.30  1527.43  1558.10  1572.03  1582.31
                             1584.96  1605.12  1612.32  1617.59  1633.01
                             1639.99  1651.68  1686.22  1697.14  1735.21
                             1742.22  1772.08  1781.12  1805.13  1814.45
                             1825.88  1856.65  1857.07  1899.27  1901.44
                             1996.89  2077.58  2443.02  2494.78  5359.83
                             5516.89  5656.77  5695.68  5773.54  5846.49
                             5869.38  5984.70  6004.12  6071.06  6258.08
                             6299.42  6327.26  6377.91  6383.65  6483.30
                             6509.30  6546.62  6611.91  6637.36  6766.03
                             6784.74  6818.25  6896.89  6971.17  6984.64
                             7046.13  7178.76  7196.14  7235.65

 Zero-point correction=                           0.465749 (Hartree/Particle)
 Thermal correction to Energy=                    0.479846
 Thermal correction to Enthalpy=                  0.480790
 Thermal correction to Gibbs Free Energy=         0.426395
 Sum of electronic and zero-point Energies=           -923.234852
 Sum of electronic and thermal Energies=              -923.220755
 Sum of electronic and thermal Enthalpies=            -923.219811
 Sum of electronic and thermal Free Energies=         -923.274206

                     E (Thermal)             CV                S
                      KCal/Mol        Cal/Mol-Kelvin    Cal/Mol-Kelvin
 Total                  301.108             66.152            114.483
 Electronic               0.000              0.000              0.000
 Translational            0.889              2.981             42.935
 Rotational               0.889              2.981             34.279
 Vibrational            299.330             60.191             37.269
 Vibration     1          0.603              1.951              3.519
 Vibration     2          0.606              1.943              3.305
 Vibration     3          0.629              1.868              2.335
 Vibration     4          0.638              1.840              2.131
 Vibration     5          0.648              1.808              1.944
 Vibration     6          0.668              1.745              1.659
 Vibration     7          0.688              1.687              1.456
 Vibration     8          0.691              1.679              1.433
 Vibration     9          0.706              1.634              1.308
 Vibration    10          0.732              1.563              1.139
 Vibration    11          0.741              1.536              1.083
 Vibration    12          0.763              1.478              0.977
 Vibration    13          0.774              1.449              0.928
 Vibration    14          0.789              1.411              0.867
 Vibration    15          0.796              1.392              0.840
 Vibration    16          0.834              1.301              0.718
 Vibration    17          0.845              1.274              0.686
 Vibration    18          0.870              1.217              0.622
 Vibration    19          0.890              1.173              0.576
 Vibration    20          0.920              1.109              0.516
 Vibration    21          0.956              1.036              0.453
 Vibration    22          0.964              1.021              0.441
 Vibration    23          0.976              0.997              0.422

 Normal termination of Gaussian 16 at Sat Mar  4 13:34:00 2023.
