 Gaussian 16, Revision C.01,
 Gaussian 16:  ES64L-G16RevC.01  3-Jul-2019

 ----------------------------------------------------------------------
 #p pop=(regular,nbo,savenbos) freq=noraman def2svp empiricaldispersion
 =gd3bj output=wfx pbe1pbe
 ----------------------------------------------------------------------

 ----------------------------------------
 DURBUP_Complex_4_Ligand_0_NN_Cu_oriented
 ----------------------------------------
 Symbolic Z-matrix:
 Charge =  0 Multiplicity = 1

                         Standard orientation:
 ---------------------------------------------------------------------
 Center     Atomic      Atomic             Coordinates (Angstroms)
 Number     Number       Type             X           Y           Z
 ---------------------------------------------------------------------
      1         16           0        4.304328    0.195733    0.565347
      2         16           0       -4.296734    0.200234   -0.563588
      3          7           0       -0.666776   -0.411301   -1.189137
      4          1           0       -0.066879   -0.320874   -1.840791
      5          7           0        0.664592   -0.419801    1.188147
      6          1           0        0.065738   -0.332807    1.840010
      7          6           0       -0.635588    0.851891   -0.412372
      8          1           0       -1.396973    0.848027    0.204249
      9          6           0       -0.729090    2.112025   -1.274008
     10          1           0       -0.008128    2.116480   -1.924297
     11          1           0       -1.570160    2.115859   -1.757211
     12          6           0        0.633364    0.852684    0.411371
     13          1           0        1.394940    0.849512   -0.205789
     14          6           0        1.975762   -0.727730    1.849944
     15          1           0        2.226792    0.018743    2.416058
     16          1           0        1.869292   -1.507623    2.416436
     17          6           0        3.075652   -0.984896    0.864089
     18          6           0        3.338640   -2.113110    0.158317
     19          6           0        5.161507   -0.832181   -0.509366
     20          6           0       -1.969482   -0.713036   -1.852987
     21          1           0       -1.859127   -1.489215   -2.424465
     22          1           0       -2.217532    0.036757   -2.415273
     23          6           0       -3.077383   -0.978560   -0.877088
     24          6           0       -3.339009   -2.114108   -0.171564
     25          1           0       -2.802635   -2.872577   -0.200067
     26          6           0       -4.527692   -2.015784    0.620459
     27          1           0       -4.830999   -2.705621    1.164569
     28          6           0       -5.163482   -0.840792    0.507866
     29          6           0       -6.435640   -0.411375    1.150635
     30          1           0       -7.079235   -0.195002    0.471600
     31          6           0       -0.635352    3.348339   -0.403250
     32          1           0       -0.660933    4.139301   -0.964258
     33          1           0       -1.401120    3.379206    0.192783
     34          6           0        0.627708    3.356192    0.411379
     35          1           0        0.642489    4.144428    0.976048
     36          1           0        1.394305    3.399208   -0.184172
     37          6           0        0.729631    2.113139    1.275392
     38          1           0        1.574926    2.116356    1.752248
     39          6           0        4.516673   -2.012941   -0.616969
     40          1           0        4.822031   -2.705299   -1.155628
     41          6           0        6.436126   -0.405176   -1.141276
     42          1           0        7.028610   -0.062622   -0.468027
     43          1           0        6.258676    0.279470   -1.788739
     44          1           0       -6.273031    0.362308    1.694853
     45          1           0       -6.773508   -1.123328    1.697713
     46          1           0        6.845929   -1.157620   -1.573819
     47          1           0        2.801691   -2.872011    0.181456
     48          1           0        0.014551    2.113698    1.929862
 ---------------------------------------------------------------------

 SCF Done:  E(RPBE1PBE) =  -1605.00463408     A.U. after   14 cycles

 The electronic state is 1-A.
 Alpha  occ. eigenvalues --  -89.01707 -89.01680 -14.33954 -14.33924 -10.25009
 Alpha  occ. eigenvalues --  -10.24979 -10.24674 -10.24586 -10.23100 -10.23098
 Alpha  occ. eigenvalues --  -10.22517 -10.22454 -10.20634 -10.20549 -10.20452
 Alpha  occ. eigenvalues --  -10.20412 -10.19931 -10.19917 -10.18997 -10.18959
 Alpha  occ. eigenvalues --  -10.18912 -10.18897  -8.01898  -8.01864  -5.96020
 Alpha  occ. eigenvalues --   -5.95990  -5.95646  -5.95614  -5.95366  -5.95325
 Alpha  occ. eigenvalues --   -0.93512  -0.91340  -0.90045  -0.89293  -0.84838
 Alpha  occ. eigenvalues --   -0.80291  -0.80104  -0.76929  -0.76761  -0.75222
 Alpha  occ. eigenvalues --   -0.74814  -0.73146  -0.71822  -0.67533  -0.67414
 Alpha  occ. eigenvalues --   -0.63894  -0.62749  -0.60515  -0.56610  -0.56458
 Alpha  occ. eigenvalues --   -0.55871  -0.55718  -0.52457  -0.51232  -0.50654
 Alpha  occ. eigenvalues --   -0.49169  -0.48611  -0.47523  -0.46844  -0.46739
 Alpha  occ. eigenvalues --   -0.46660  -0.46309  -0.46253  -0.45750  -0.45332
 Alpha  occ. eigenvalues --   -0.43723  -0.42112  -0.40689  -0.40335  -0.39935
 Alpha  occ. eigenvalues --   -0.39136  -0.38501  -0.37976  -0.37379  -0.37307
 Alpha  occ. eigenvalues --   -0.37055  -0.36706  -0.36278  -0.35621  -0.34085
 Alpha  occ. eigenvalues --   -0.34029  -0.33670  -0.33268  -0.31806  -0.25389
 Alpha  occ. eigenvalues --   -0.25279  -0.23011  -0.22904  -0.22638  -0.20105
 Alpha virt. eigenvalues --    0.00465   0.00532   0.05012   0.05050   0.07489
 Alpha virt. eigenvalues --    0.07689   0.08871   0.09848   0.09900   0.10149
 Alpha virt. eigenvalues --    0.11066   0.12510   0.12599   0.12947   0.13510

 Mulliken charges:
               1
     1  S    0.085561
     2  S    0.083755
     3  N   -0.221295
     4  H    0.051597
     5  N   -0.226101
     6  H    0.051876
     7  C    0.018369
     8  H   -0.044978
     9  C    0.151660
    10  H   -0.045565
    11  H   -0.033151
    12  C    0.019165
    13  H   -0.044546
    14  C    0.414263
    15  H   -0.060954
    16  H   -0.027763
    17  C   -0.293413
    18  C    0.146177
    19  C   -0.315062
    20  C    0.415890
    21  H   -0.027896
    22  H   -0.062114
    23  C   -0.293840
    24  C    0.144442
    25  H   -0.110012
    26  C    0.094296
    27  H   -0.114886
    28  C   -0.310273
    29  C    0.326455
    30  H   -0.004053
    31  C    0.080441
    32  H   -0.033236
    33  H   -0.033822
    34  C    0.082212
    35  H   -0.032886
    36  H   -0.033030
    37  C    0.152108
    38  H   -0.032853
    39  C    0.097842
    40  H   -0.117119
    41  C    0.328889
    42  H   -0.008979
    43  H   -0.002924
    44  H   -0.005865
    45  H   -0.027003
    46  H   -0.025455
    47  H   -0.109916
    48  H   -0.046008
 Sum of Mulliken charges =  -0.00000

 Dipole moment (field-independent basis, Debye):
    X=              0.0259    Y=              0.8302    Z=              0.0118  Tot=              0.8306
 Quadrupole moment (field-independent basis, Debye-Ang):
   XX=           -131.6560   YY=           -141.7389   ZZ=           -138.4863
   XY=              0.0430   XZ=            -10.0253   YZ=             -0.0654

  Exact polarizability:     243.675       0.163     204.063     -29.748      -0.139     166.052
 Approx polarizability:     311.801       0.562     328.863     -48.329      -0.553     261.551

 Summary of Natural Population Analysis:

                                       Natural Population
                Natural  -----------------------------------------------
    Atom  No    Charge         Core      Valence    Rydberg      Total
 -----------------------------------------------------------------------
      S    1    0.37775      9.99868     5.58586    0.03771    15.62225
      S    2    0.37217      9.99869     5.59171    0.03743    15.62783
      N    3   -0.64917      1.99935     5.62939    0.02042     7.64917
      H    4    0.31919      0.00000     0.67410    0.00671     0.68081
      N    5   -0.64982      1.99936     5.63010    0.02036     7.64982
      H    6    0.31869      0.00000     0.67465    0.00666     0.68131
      C    7   -0.00549      1.99894     3.98580    0.02075     6.00549
      H    8    0.18033      0.00000     0.81326    0.00641     0.81967
      C    9   -0.38754      1.99906     4.37391    0.01458     6.38754
      H   10    0.17933      0.00000     0.81618    0.00449     0.82067
      H   11    0.19024      0.00000     0.80615    0.00361     0.80976
      C   12   -0.00515      1.99894     3.98549    0.02072     6.00515
      H   13    0.18017      0.00000     0.81344    0.00639     0.81983
      C   14   -0.17116      1.99892     4.15409    0.01814     6.17116
      H   15    0.16727      0.00000     0.82806    0.00467     0.83273
      H   16    0.19789      0.00000     0.79922    0.00290     0.80211
      C   17   -0.20404      1.99907     4.18216    0.02281     6.20404
      C   18   -0.20133      1.99891     4.18580    0.01662     6.20133
      C   19   -0.18474      1.99909     4.16514    0.02052     6.18474
      C   20   -0.17074      1.99893     4.15345    0.01836     6.17074
      H   21    0.19858      0.00000     0.79853    0.00289     0.80142
      H   22    0.16659      0.00000     0.82866    0.00475     0.83341
      C   23   -0.20758      1.99908     4.18594    0.02256     6.20758
      C   24   -0.19756      1.99892     4.18197    0.01667     6.19756
      H   25    0.18200      0.00000     0.81521    0.00279     0.81800
      C   26   -0.22740      1.99889     4.21275    0.01576     6.22740
      H   27    0.17922      0.00000     0.81814    0.00263     0.82078
      C   28   -0.17870      1.99906     4.15912    0.02053     6.17870
      C   29   -0.55681      1.99912     4.54721    0.01049     6.55681
      H   30    0.20104      0.00000     0.79613    0.00283     0.79896
      C   31   -0.35842      1.99910     4.34653    0.01279     6.35842
      H   32    0.18946      0.00000     0.80680    0.00374     0.81054
      H   33    0.18001      0.00000     0.81571    0.00428     0.81999
      C   34   -0.35800      1.99910     4.34618    0.01271     6.35800
      H   35    0.18944      0.00000     0.80685    0.00371     0.81056
      H   36    0.18014      0.00000     0.81561    0.00425     0.81986
      C   37   -0.38695      1.99905     4.37333    0.01456     6.38695
      H   38    0.19032      0.00000     0.80606    0.00362     0.80968
      C   39   -0.22627      1.99892     4.21156    0.01580     6.22627
      H   40    0.17851      0.00000     0.81882    0.00267     0.82149
      C   41   -0.55768      1.99912     4.54800    0.01057     6.55768
      H   42    0.20078      0.00000     0.79638    0.00284     0.79922
      H   43    0.20017      0.00000     0.79699    0.00285     0.79983
      H   44    0.20012      0.00000     0.79705    0.00283     0.79988
      H   45    0.20070      0.00000     0.79686    0.00244     0.79930
      H   46    0.20137      0.00000     0.79616    0.00247     0.79863
      H   47    0.18413      0.00000     0.81304    0.00283     0.81587
      H   48    0.17893      0.00000     0.81659    0.00449     0.82107
 =======================================================================
   * Total *    0.00000     59.97828   119.50011    0.52161   180.00000

 ******   39 imaginary frequencies (negative Signs) ******

                      1                      2                      3
                      A                      A                      A
 Frequencies --  -1477.9178             -1459.3891             -1411.5701
 Red. masses --      1.0835                 1.0867                 1.0375
 Frc consts  --      1.3944                 1.3636                 1.2180
 IR Inten    --    100.1840               118.1837                 9.7241

                      4                      5                      6
                      A                      A                      A
 Frequencies --  -1407.2654             -1404.6190             -1403.3109
 Red. masses --      1.0513                 1.0409                 1.0163
 Frc consts  --      1.2267                 1.2099                 1.1792
 IR Inten    --     43.2144                34.7668                 6.1176

                      7                      8                      9
                      A                      A                      A
 Frequencies --  -1339.1302             -1332.6056             -1103.9608
 Red. masses --      1.0438                 1.0426                 1.0419
 Frc consts  --      1.1028                 1.0908                 0.7481
 IR Inten    --      0.3277                 0.2540                 6.4592

                     10                     11                     12
                      A                      A                      A
 Frequencies --  -1081.8635             -1065.2282             -1061.7412
 Red. masses --      1.0204                 1.0264                 1.0400
 Frc consts  --      0.7037                 0.6862                 0.6908
 IR Inten    --      1.2269                 2.4797                 0.2195

                     13                     14                     15
                      A                      A                      A
 Frequencies --  -1059.5339             -1034.5825             -1019.0649
 Red. masses --      1.0245                 1.0279                 1.0603
 Frc consts  --      0.6776                 0.6482                 0.6488
 IR Inten    --      4.4661                 2.6376                10.5259

                     16                     17                     18
                      A                      A                      A
 Frequencies --  -1010.2847             -1008.2204             -1004.1806
 Red. masses --      1.0607                 1.0609                 1.0640
 Frc consts  --      0.6379                 0.6354                 0.6321
 IR Inten    --      8.6208                 9.7099                 7.7016

                     19                     20                     21
                      A                      A                      A
 Frequencies --   -997.4465              -994.9356              -909.3672
 Red. masses --      1.0460                 1.0484                 1.0372
 Frc consts  --      0.6132                 0.6114                 0.5053
 IR Inten    --      1.4443                 2.0200                 2.9595

                     22                     23                     24
                      A                      A                      A
 Frequencies --   -898.5319              -720.1960              -691.7865
 Red. masses --      1.0548                 1.2108                 1.2337
 Frc consts  --      0.5018                 0.3700                 0.3479
 IR Inten    --     16.7679                11.4947                12.1357

                     25                     26                     27
                      A                      A                      A
 Frequencies --   -576.3799              -557.2555              -528.4784
 Red. masses --      1.2432                 1.1362                 1.2201
 Frc consts  --      0.2433                 0.2079                 0.2008
 IR Inten    --      1.3570                 0.7729                 0.4696

                     28                     29                     30
                      A                      A                      A
 Frequencies --   -523.5719              -477.3613              -419.9710
 Red. masses --      1.3939                 1.4069                 1.8351
 Frc consts  --      0.2251                 0.1889                 0.1907
 IR Inten    --      1.0644                 4.2704                 1.1275

                     31                     32                     33
                      A                      A                      A
 Frequencies --   -379.6623              -368.9561              -349.1883
 Red. masses --      1.6194                 1.5832                 1.8472
 Frc consts  --      0.1375                 0.1270                 0.1327
 IR Inten    --      3.5882                 2.3638                 5.8149

                     34                     35                     36
                      A                      A                      A
 Frequencies --   -320.5089              -294.6920              -230.4731
 Red. masses --      2.1861                 1.2321                 1.4948
 Frc consts  --      0.1323                 0.0630                 0.0468
 IR Inten    --      2.3447                 4.6226                 0.3916

                     37                     38                     39
                      A                      A                      A
 Frequencies --   -134.3226              -121.2783               -63.4519
 Red. masses --      1.3055                 2.9679                 4.5593
 Frc consts  --      0.0139                 0.0257                 0.0108
 IR Inten    --      3.5417                 3.5010                 0.4133

                     40                     41                     42
                      A                      A                      A
 Frequencies --     89.0384               100.4984               189.4368
 Red. masses --      8.4682                10.6732                 5.0931
 Frc consts  --      0.0396                 0.0635                 0.1077
 IR Inten    --      0.0821                 0.1156                 0.0166

                     43                     44                     45
                      A                      A                      A
 Frequencies --    192.3165               219.1775               270.4103
 Red. masses --      5.1325                 6.0121                 6.4652
 Frc consts  --      0.1118                 0.1702                 0.2785
 IR Inten    --      0.0534                 0.0034                 0.2673

                     46                     47                     48
                      A                      A                      A
 Frequencies --    314.6798               370.6901               376.1328
 Red. masses --      6.0868                 2.7647                 3.2730
 Frc consts  --      0.3551                 0.2238                 0.2728
 IR Inten    --      0.3115                 2.4355                 5.0161

                     49                     50                     51
                      A                      A                      A
 Frequencies --    412.4514               425.7080               446.8950
 Red. masses --      3.9160                 3.4419                 1.1721
 Frc consts  --      0.3925                 0.3675                 0.1379
 IR Inten    --      1.8416                 0.6025                 4.6310

                     52                     53                     54
                      A                      A                      A
 Frequencies --    449.6623               486.9531               488.9624
 Red. masses --      1.1666                 5.9086                 6.3722
 Frc consts  --      0.1390                 0.8255                 0.8976
 IR Inten    --      4.4610                 1.0975                 0.1990

                     55                     56                     57
                      A                      A                      A
 Frequencies --    526.6096               537.7183               558.1751
 Red. masses --      5.4184                 5.4159                 5.4107
 Frc consts  --      0.8853                 0.9226                 0.9932
 IR Inten    --      0.8586                 3.1376                 1.4968

                     58                     59                     60
                      A                      A                      A
 Frequencies --    561.7991               649.5536               661.0725
 Red. masses --      5.9576                 1.6209                 2.4126
 Frc consts  --      1.1079                 0.4029                 0.6212
 IR Inten    --      1.8471                 0.6981                 5.9236

                     61                     62                     63
                      A                      A                      A
 Frequencies --    668.4876               672.3108               673.1659
 Red. masses --      1.9423                 3.1724                 3.7834
 Frc consts  --      0.5114                 0.8448                 1.0101
 IR Inten    --      0.5948                 0.9630                 2.6211

                     64                     65                     66
                      A                      A                      A
 Frequencies --    674.4410               676.0746               705.8783
 Red. masses --      3.4612                 3.4051                 4.3645
 Frc consts  --      0.9276                 0.9170                 1.2813
 IR Inten    --      0.7448                 0.1633                18.8073

                     67                     68                     69
                      A                      A                      A
 Frequencies --    712.4444               743.3515               746.3887
 Red. masses --      4.2365                 2.3687                 2.3428
 Frc consts  --      1.2670                 0.7712                 0.7690
 IR Inten    --      8.1913                 3.4854                 0.5056

                     70                     71                     72
                      A                      A                      A
 Frequencies --    761.4420               765.8539               790.8707
 Red. masses --      4.6230                 4.1518                 3.6900
 Frc consts  --      1.5792                 1.4348                 1.3599
 IR Inten    --      7.5707                 5.7276                 6.3737

                     73                     74                     75
                      A                      A                      A
 Frequencies --    816.8808               824.1593               843.2552
 Red. masses --      2.8206                 3.5311                 2.8754
 Frc consts  --      1.1090                 1.4131                 1.2047
 IR Inten    --      0.4316                17.8724                 2.4704

                     76                     77                     78
                      A                      A                      A
 Frequencies --    855.1725               869.3673               885.7347
 Red. masses --      2.9787                 3.8159                 2.0446
 Frc consts  --      1.2834                 1.6993                 0.9451
 IR Inten    --      1.5173                17.7658                 1.1499

                     79                     80                     81
                      A                      A                      A
 Frequencies --    893.5476               920.8038               930.5866
 Red. masses --      3.3467                 2.6498                 2.8464
 Frc consts  --      1.5743                 1.3237                 1.4523
 IR Inten    --     23.9410                 0.6605                 1.3662

                     82                     83                     84
                      A                      A                      A
 Frequencies --    947.5557               969.0410               976.6416
 Red. masses --      2.8557                 1.1853                 1.1933
 Frc consts  --      1.5107                 0.6558                 0.6706
 IR Inten    --     24.6700                 1.7145                11.0113

                     85                     86                     87
                      A                      A                      A
 Frequencies --    985.3156               995.4847               998.8507
 Red. masses --      1.5474                 1.2454                 1.2102
 Frc consts  --      0.8851                 0.7272                 0.7114
 IR Inten    --      3.6877                 4.9397                 9.5625

                     88                     89                     90
                      A                      A                      A
 Frequencies --   1002.5927              1004.4580              1006.7430
 Red. masses --      1.0924                 1.2147                 1.1142
 Frc consts  --      0.6470                 0.7221                 0.6654
 IR Inten    --     16.7994                12.5430                18.1855

                     91                     92                     93
                      A                      A                      A
 Frequencies --   1009.9297              1025.0261              1035.6282
 Red. masses --      1.3650                 1.3729                 1.8518
 Frc consts  --      0.8203                 0.8499                 1.1702
 IR Inten    --      8.1176                15.9248                 1.9541

                     94                     95                     96
                      A                      A                      A
 Frequencies --   1077.9384              1105.8198              1139.1244
 Red. masses --      2.6223                 2.8084                 3.9917
 Frc consts  --      1.7952                 2.0234                 3.0517
 IR Inten    --     48.6755                 2.3248                10.0359

                     97                     98                     99
                      A                      A                      A
 Frequencies --   1144.3835              1158.4562              1188.9720
 Red. masses --      3.6985                 3.3499                 4.3218
 Frc consts  --      2.8538                 2.6488                 3.5996
 IR Inten    --     21.2875                33.6210                 0.8114

                    100                    101                    102
                      A                      A                      A
 Frequencies --   1195.2570              1228.5425              1236.2031
 Red. masses --      5.7895                 7.2233                 8.0238
 Frc consts  --      4.8732                 6.4234                 7.2245
 IR Inten    --      7.9852                16.0979                14.0264

                    103                    104                    105
                      A                      A                      A
 Frequencies --   1238.3048              1247.0107              1247.3403
 Red. masses --      7.9236                 6.5701                 6.1978
 Frc consts  --      7.1586                 6.0195                 5.6815
 IR Inten    --      1.9044                 5.6163                 3.1783

                    106                    107                    108
                      A                      A                      A
 Frequencies --   1296.1044              1296.9487              1345.2426
 Red. masses --      7.1741                 6.8375                 7.5174
 Frc consts  --      7.1006                 6.7763                 8.0153
 IR Inten    --      1.3053                 2.8777                 1.0031

                    109                    110                    111
                      A                      A                      A
 Frequencies --   1598.4862              1618.5969              1684.8189
 Red. masses --      9.6636                 9.8607                 9.7034
 Frc consts  --     14.5482                15.2208                16.2285
 IR Inten    --      9.0609                10.7031                 2.1596

                    112                    113                    114
                      A                      A                      A
 Frequencies --   1709.6876              4358.0438              4367.1968
 Red. masses --      9.6759                 1.0875                 1.0871
 Frc consts  --     16.6638                12.1697                12.2155
 IR Inten    --      4.2103                 0.8964                 8.8110

                    115                    116                    117
                      A                      A                      A
 Frequencies --   4407.8907              4411.0998              4414.1354
 Red. masses --      1.0601                 1.0598                 1.0611
 Frc consts  --     12.1357                12.1501                12.1811
 IR Inten    --     14.8160                16.0098                11.5512

                    118                    119                    120
                      A                      A                      A
 Frequencies --   4417.1016              4418.3756              4420.2209
 Red. masses --      1.0601                 1.0598                 1.0602
 Frc consts  --     12.1868                12.1896                12.2047
 IR Inten    --      8.2063                30.3488                20.7639

                    121                    122                    123
                      A                      A                      A
 Frequencies --   4473.1443              4476.0112              4527.2085
 Red. masses --      1.0325                 1.0326                 1.1082
 Frc consts  --     12.1720                12.1890                13.3825
 IR Inten    --      7.5339                 7.8099                 8.9532

                    124                    125                    126
                      A                      A                      A
 Frequencies --   4531.6619              4535.9148              4539.4194
 Red. masses --      1.1086                 1.1086                 1.1092
 Frc consts  --     13.4129                13.4383                13.4661
 IR Inten    --      6.6018                13.0895                 5.2759

                    127                    128                    129
                      A                      A                      A
 Frequencies --   4540.6666              4542.3331              4674.7743
 Red. masses --      1.1089                 1.1087                 1.1065
 Frc consts  --     13.4698                13.4776                14.2474
 IR Inten    --      5.7664                13.0932                 0.1435

                    130                    131                    132
                      A                      A                      A
 Frequencies --   4679.9732              4687.9303              4688.4639
 Red. masses --      1.1066                 1.1068                 1.1070
 Frc consts  --     14.2797                14.3316                14.3369
 IR Inten    --      0.1508                 0.2065                 0.2170

                    133                    134                    135
                      A                      A                      A
 Frequencies --   5042.1167              5043.8961              5054.6423
 Red. masses --      1.0893                 1.0892                 1.0914
 Frc consts  --     16.3158                16.3264                16.4297
 IR Inten    --      1.0662                 0.6082                 1.3447

                    136                    137                    138
                      A                      A                      A
 Frequencies --   5054.7945              5325.1733              5341.1061
 Red. masses --      1.0915                 1.0751                 1.0752
 Frc consts  --     16.4318                17.9633                18.0719
 IR Inten    --      1.0035                 3.3448                 3.4213

 - Thermochemistry -
 -------------------
 Temperature   298.150 Kelvin.  Pressure   1.00000 Atm.
 Atom     1 has atomic number 16 and mass  31.97207

 Molecular mass:   334.15374 amu.
 Principal axes and moments of inertia in atomic units:
                           1         2         3
     Eigenvalues --  3907.46774********************
           X            0.99996  -0.00000  -0.00870
           Y            0.00000   1.00000  -0.00006
           Z            0.00870   0.00006   0.99996
 This molecule is an asymmetric top.
 Rotational symmetry number  1.
 Warning -- assumption of classical behavior for rotation
           may cause significant error
 Rotational temperatures (Kelvin)      0.02217     0.00525     0.00477
 Rotational constants (GHZ):           0.46187     0.10934     0.09939
   39 imaginary frequencies ignored.
 Zero-point vibrational energy    1091269.2 (Joules/Mol)
                                  260.81959 (Kcal/Mol)
 Warning -- explicit consideration of  19 degrees of freedom as
           vibrations may cause significant error
 Vibrational temperatures:    128.11   144.59   272.56   276.70   315.35
          (Kelvin)            389.06   452.75   533.34   541.17   593.43
                              612.50   642.98   646.96   700.62   703.51
                              757.67   773.66   803.09   808.30   934.56
                              951.14   961.80   967.31   968.54   970.37
                              972.72  1015.60  1025.05  1069.52  1073.89
                             1095.55  1101.89  1137.89  1175.31  1185.78
                             1213.26  1230.40  1250.83  1274.37  1285.62
                             1324.83  1338.91  1363.32  1394.23  1405.17
                             1417.65  1432.28  1437.12  1442.51  1445.19
                             1448.48  1453.06  1474.78  1490.04  1550.91
                             1591.03  1638.95  1646.51  1666.76  1710.67
                             1719.71  1767.60  1778.62  1781.64  1794.17
                             1794.64  1864.81  1866.02  1935.50  2299.87
                             2328.80  2424.08  2459.86  6270.25  6283.42
                             6341.97  6346.59  6350.96  6355.22  6357.06
                             6359.71  6435.86  6439.98  6513.64  6520.05
                             6526.17  6531.21  6533.01  6535.40  6725.96
                             6733.44  6744.89  6745.65  7254.48  7257.04
                             7272.50  7272.72  7661.74  7684.66

 Zero-point correction=                           0.415642 (Hartree/Particle)
 Thermal correction to Energy=                    0.428342
 Thermal correction to Enthalpy=                  0.429286
 Thermal correction to Gibbs Free Energy=         0.376192
 Sum of electronic and zero-point Energies=          -1604.588992
 Sum of electronic and thermal Energies=             -1604.576293
 Sum of electronic and thermal Enthalpies=           -1604.575348
 Sum of electronic and thermal Free Energies=        -1604.628442

                     E (Thermal)             CV                S
                      KCal/Mol        Cal/Mol-Kelvin    Cal/Mol-Kelvin
 Total                  268.788             58.688            111.746
 Electronic               0.000              0.000              0.000
 Translational            0.889              2.981             43.314
 Rotational               0.889              2.981             35.414
 Vibrational            267.011             52.726             33.018
 Vibration     1          0.602              1.957              3.681
 Vibration     2          0.604              1.949              3.445
 Vibration     3          0.633              1.854              2.233
 Vibration     4          0.634              1.851              2.205
 Vibration     5          0.647              1.812              1.966
 Vibration     6          0.674              1.728              1.594
 Vibration     7          0.702              1.646              1.338
 Vibration     8          0.743              1.532              1.077
 Vibration     9          0.747              1.521              1.055
 Vibration    10          0.776              1.443              0.918
 Vibration    11          0.788              1.414              0.873
 Vibration    12          0.806              1.368              0.805
 Vibration    13          0.809              1.362              0.797
 Vibration    14          0.843              1.279              0.692
 Vibration    15          0.845              1.275              0.686
 Vibration    16          0.882              1.191              0.595
 Vibration    17          0.893              1.167              0.570
 Vibration    18          0.914              1.122              0.527
 Vibration    19          0.917              1.114              0.520

 Normal termination of Gaussian 16 at Sat Mar  4 13:20:57 2023.
