 Gaussian 16, Revision C.01,
 Gaussian 16:  ES64L-G16RevC.01  3-Jul-2019

 ----------------------------------------------------------------------
 #p pop=(regular,nbo,savenbos) freq=noraman def2svp empiricaldispersion
 =gd3bj output=wfx pbe1pbe
 ----------------------------------------------------------------------

 ----------------------------------------
 DURCAW_Complex_0_Ligand_0_NN_Cu_oriented
 ----------------------------------------
 Symbolic Z-matrix:
 Charge =  0 Multiplicity = 1

                         Standard orientation:
 ---------------------------------------------------------------------
 Center     Atomic      Atomic             Coordinates (Angstroms)
 Number     Number       Type             X           Y           Z
 ---------------------------------------------------------------------
      1          7           0       -0.390220   -1.721492    0.420766
      2          1           0       -0.243975   -2.585440    0.574353
      3          7           0       -1.409426    0.454156    1.693651
      4          1           0       -1.932918    0.327336    2.402155
      5          6           0       -1.863923   -1.544028    0.344075
      6          1           0       -2.250029   -2.035334    1.099026
      7          6           0       -2.534752   -2.064328   -0.907569
      8          1           0       -2.289270   -2.992138   -1.053534
      9          1           0       -2.245532   -1.547991   -1.677394
     10          6           0       -3.709624    0.085448    0.737450
     11          1           0       -3.928345    1.026126    0.828383
     12          1           0       -3.983696   -0.367735    1.549358
     13          6           0       -2.206158   -0.069970    0.552267
     14          1           0       -1.944759    0.422334   -0.254077
     15          6           0       -1.253339    1.941300    1.614299
     16          1           0       -2.132659    2.352126    1.629513
     17          1           0       -0.768856    2.250564    2.396768
     18          6           0       -0.537690    2.382431    0.402547
     19          6           0       -0.876867    3.115237   -0.649391
     20          1           0       -1.710846    3.493051   -0.813020
     21          6           0        0.275267    3.214756   -1.483680
     22          1           0        0.327397    3.655600   -2.301532
     23          6           0        1.262169    2.563604   -0.876110
     24          6           0        2.673800    2.309321   -1.197042
     25          1           0        2.888908    2.714684   -2.040130
     26          1           0        2.825335    1.362973   -1.249205
     27          1           0        3.230749    2.684615   -0.510201
     28          8           0        0.782548    2.028086    0.296017
     29          6           0        0.378344   -1.369637   -0.801318
     30          1           0        0.212820   -0.442867   -1.036885
     31          6           0        1.834468   -1.574681   -0.550107
     32          6           0        3.669865   -1.163311    0.572219
     33          6           0        4.460694   -0.420636    1.575423
     34          1           0        5.287890   -0.882040    1.736923
     35          1           0        3.963410   -0.360455    2.394448
     36          1           0        4.644667    0.462238    1.248491
     37          8           0        2.373733   -0.772351    0.409155
     38          6           0       -4.047196   -1.946203   -0.739892
     39          1           0       -4.335005   -2.515261   -0.007811
     40          1           0       -4.485736   -2.255821   -1.549320
     41          6           0       -4.466795   -0.500006   -0.453755
     42          1           0       -4.296728    0.043917   -1.239400
     43          1           0       -5.419016   -0.472422   -0.272346
     44          6           0        2.749019   -2.442374   -0.992761
     45          1           0        2.630271   -3.095863   -1.643823
     46          6           0        3.936135   -2.164962   -0.270912
     47          1           0        4.751920   -2.601172   -0.366589
     48          1           0        0.090767   -1.927318   -1.540914
 ---------------------------------------------------------------------

 SCF Done:  E(RPBE1PBE) =  -959.304844723     A.U. after   14 cycles

 The electronic state is 1-A.
 Alpha  occ. eigenvalues --  -19.25023 -19.25022 -14.34135 -14.33533 -10.26714
 Alpha  occ. eigenvalues --  -10.26410 -10.26268 -10.26061 -10.22761 -10.22573
 Alpha  occ. eigenvalues --  -10.22404 -10.22238 -10.19809 -10.19681 -10.19632
 Alpha  occ. eigenvalues --  -10.19588 -10.19519 -10.19416 -10.19245 -10.19081
 Alpha  occ. eigenvalues --  -10.19062 -10.19059  -1.11178  -1.10716  -0.93479
 Alpha  occ. eigenvalues --   -0.90745  -0.84936  -0.81531  -0.81321  -0.80914
 Alpha  occ. eigenvalues --   -0.80596  -0.77299  -0.76670  -0.74124  -0.72471
 Alpha  occ. eigenvalues --   -0.67552  -0.67422  -0.64336  -0.62480  -0.61699
 Alpha  occ. eigenvalues --   -0.61600  -0.60078  -0.57429  -0.57205  -0.52920
 Alpha  occ. eigenvalues --   -0.52285  -0.50531  -0.49460  -0.48978  -0.48321
 Alpha  occ. eigenvalues --   -0.47705  -0.47435  -0.46764  -0.46303  -0.45858
 Alpha  occ. eigenvalues --   -0.45485  -0.45124  -0.43869  -0.42609  -0.41994
 Alpha  occ. eigenvalues --   -0.41870  -0.41424  -0.40840  -0.40625  -0.40049
 Alpha  occ. eigenvalues --   -0.39732  -0.39021  -0.38630  -0.37793  -0.37125
 Alpha  occ. eigenvalues --   -0.36320  -0.35857  -0.35758  -0.33956  -0.33342
 Alpha  occ. eigenvalues --   -0.31743  -0.28152  -0.27950  -0.22723  -0.22327
 Alpha  occ. eigenvalues --   -0.21813  -0.20293
 Alpha virt. eigenvalues --    0.03336   0.03763   0.07593   0.08659   0.08768
 Alpha virt. eigenvalues --    0.09189   0.09577   0.10138   0.10646   0.11680
 Alpha virt. eigenvalues --    0.12946   0.13316   0.13483   0.14064   0.15174

 Mulliken charges:
               1
     1  N   -0.213368
     2  H    0.049457
     3  N   -0.192317
     4  H    0.043852
     5  C    0.003893
     6  H   -0.058515
     7  C    0.134233
     8  H   -0.037437
     9  H   -0.027981
    10  C    0.152825
    11  H   -0.037663
    12  H   -0.038465
    13  C   -0.027572
    14  H   -0.034293
    15  C    0.446182
    16  H   -0.069643
    17  H   -0.029522
    18  C   -0.032239
    19  C    0.032233
    20  H   -0.118855
    21  C    0.004714
    22  H   -0.117223
    23  C   -0.041591
    24  C    0.361958
    25  H   -0.038093
    26  H   -0.004650
    27  H   -0.011050
    28  O   -0.271936
    29  C    0.455875
    30  H   -0.034274
    31  C   -0.017003
    32  C   -0.048495
    33  C    0.351271
    34  H   -0.032733
    35  H   -0.006439
    36  H   -0.015407
    37  O   -0.251789
    38  C    0.083436
    39  H   -0.031846
    40  H   -0.030783
    41  C    0.075013
    42  H   -0.029351
    43  H   -0.028458
    44  C    0.021264
    45  H   -0.118546
    46  C    0.008558
    47  H   -0.118031
    48  H   -0.059199
 Sum of Mulliken charges =  -0.00000

 Dipole moment (field-independent basis, Debye):
    X=             -1.1503    Y=             -0.0343    Z=             -0.7527  Tot=              1.3751
 Quadrupole moment (field-independent basis, Debye-Ang):
   XX=           -115.0456   YY=           -126.1378   ZZ=           -126.0379
   XY=              1.3641   XZ=             -1.7319   YZ=              1.1549

  Exact polarizability:     218.763      -1.410     164.719       0.232       5.955     153.423
 Approx polarizability:     274.174     -12.950     229.280       2.552       4.570     239.377

 Summary of Natural Population Analysis:

                                       Natural Population
                Natural  -----------------------------------------------
    Atom  No    Charge         Core      Valence    Rydberg      Total
 -----------------------------------------------------------------------
      N    1   -0.64731      1.99934     5.62822    0.01975     7.64731
      H    2    0.32069      0.00000     0.67255    0.00676     0.67931
      N    3   -0.64227      1.99938     5.62221    0.02068     7.64227
      H    4    0.31616      0.00000     0.67713    0.00672     0.68384
      C    5    0.00207      1.99893     3.97744    0.02156     5.99793
      H    6    0.17853      0.00000     0.81692    0.00455     0.82147
      C    7   -0.39111      1.99906     4.37832    0.01373     6.39111
      H    8    0.19050      0.00000     0.80534    0.00415     0.80950
      H    9    0.18257      0.00000     0.81356    0.00387     0.81743
      C   10   -0.38805      1.99905     4.37453    0.01448     6.38805
      H   11    0.18899      0.00000     0.80753    0.00348     0.81101
      H   12    0.17881      0.00000     0.81689    0.00430     0.82119
      C   13   -0.01035      1.99895     3.99109    0.02031     6.01035
      H   14    0.17984      0.00000     0.81463    0.00553     0.82016
      C   15   -0.19736      1.99893     4.18237    0.01606     6.19736
      H   16    0.17113      0.00000     0.82482    0.00406     0.82887
      H   17    0.19998      0.00000     0.79649    0.00354     0.80002
      C   18    0.30797      1.99884     3.66455    0.02864     5.69203
      C   19   -0.27461      1.99893     4.26173    0.01395     6.27461
      H   20    0.18227      0.00000     0.81554    0.00219     0.81773
      C   21   -0.29102      1.99895     4.27804    0.01403     6.29102
      H   22    0.18227      0.00000     0.81557    0.00216     0.81773
      C   23    0.34496      1.99889     3.63053    0.02562     5.65504
      C   24   -0.58570      1.99909     4.57864    0.00796     6.58570
      H   25    0.20192      0.00000     0.79589    0.00219     0.79808
      H   26    0.20870      0.00000     0.78753    0.00377     0.79130
      H   27    0.20233      0.00000     0.79437    0.00330     0.79767
      O   28   -0.49267      1.99964     6.48304    0.00999     8.49267
      C   29   -0.20001      1.99896     4.18460    0.01645     6.20001
      H   30    0.19305      0.00000     0.80212    0.00483     0.80695
      C   31    0.31921      1.99890     3.65352    0.02838     5.68079
      C   32    0.34074      1.99893     3.63452    0.02581     5.65926
      C   33   -0.58319      1.99911     4.57642    0.00766     6.58319
      H   34    0.20131      0.00000     0.79649    0.00219     0.79869
      H   35    0.20666      0.00000     0.79008    0.00326     0.79334
      H   36    0.19897      0.00000     0.79791    0.00312     0.80103
      O   37   -0.48398      1.99964     6.47408    0.01027     8.48398
      C   38   -0.35694      1.99910     4.34530    0.01254     6.35694
      H   39    0.17806      0.00000     0.81785    0.00409     0.82194
      H   40    0.18979      0.00000     0.80662    0.00359     0.81021
      C   41   -0.35578      1.99909     4.34419    0.01249     6.35578
      H   42    0.17972      0.00000     0.81631    0.00397     0.82028
      H   43    0.18880      0.00000     0.80757    0.00363     0.81120
      C   44   -0.27924      1.99897     4.26619    0.01408     6.27924
      H   45    0.18312      0.00000     0.81474    0.00214     0.81688
      C   46   -0.29098      1.99897     4.27808    0.01393     6.29098
      H   47    0.18114      0.00000     0.81670    0.00216     0.81886
      H   48    0.17032      0.00000     0.82538    0.00430     0.82968
 =======================================================================
   * Total *   -0.00000     43.97964   119.55416    0.46620   164.00000

 ******   38 imaginary frequencies (negative Signs) ******

                      1                      2                      3
                      A                      A                      A
 Frequencies --  -1459.4282             -1414.6668             -1403.7637
 Red. masses --      1.0867                 1.0984                 1.0109
 Frc consts  --      1.3638                 1.2951                 1.1737
 IR Inten    --     66.9167               120.0281                 0.2168

                      4                      5                      6
                      A                      A                      A
 Frequencies --  -1401.5789             -1392.7876             -1386.2833
 Red. masses --      1.0106                 1.0666                 1.0674
 Frc consts  --      1.1697                 1.2191                 1.2086
 IR Inten    --      0.3674                44.4942                53.9646

                      7                      8                      9
                      A                      A                      A
 Frequencies --  -1333.6665             -1329.4857             -1109.3228
 Red. masses --      1.0498                 1.0494                 1.0417
 Frc consts  --      1.1001                 1.0929                 0.7553
 IR Inten    --      0.0422                 0.0141                 4.5452

                     10                     11                     12
                      A                      A                      A
 Frequencies --  -1076.7408             -1064.0553             -1058.6158
 Red. masses --      1.0279                 1.0308                 1.0248
 Frc consts  --      0.7021                 0.6876                 0.6767
 IR Inten    --      1.5751                 1.2768                 4.5410

                     13                     14                     15
                      A                      A                      A
 Frequencies --  -1056.7175             -1048.0709             -1038.5009
 Red. masses --      1.0328                 1.0490                 1.0495
 Frc consts  --      0.6795                 0.6789                 0.6669
 IR Inten    --      3.0670                21.2589                20.4836

                     16                     17                     18
                      A                      A                      A
 Frequencies --  -1035.2857             -1012.6941             -1011.5915
 Red. masses --      1.0270                 1.0650                 1.0464
 Frc consts  --      0.6485                 0.6435                 0.6309
 IR Inten    --      2.9222                 7.7572                 6.4882

                     19                     20                     21
                      A                      A                      A
 Frequencies --  -1010.1060             -1005.9176              -935.7075
 Red. masses --      1.0476                 1.0622                 1.0403
 Frc consts  --      0.6298                 0.6333                 0.5367
 IR Inten    --      2.3067                 6.0999                 4.8358

                     22                     23                     24
                      A                      A                      A
 Frequencies --   -926.9597              -705.5348              -676.7766
 Red. masses --      1.0406                 1.2339                 1.2405
 Frc consts  --      0.5268                 0.3619                 0.3348
 IR Inten    --      5.5831                15.4959                12.4533

                     25                     26                     27
                      A                      A                      A
 Frequencies --   -582.4190              -567.0707              -550.0443
 Red. masses --      1.1620                 1.2373                 1.2036
 Frc consts  --      0.2322                 0.2344                 0.2145
 IR Inten    --      1.1194                 0.6269                 1.0646

                     28                     29                     30
                      A                      A                      A
 Frequencies --   -529.2129              -475.6837              -419.4974
 Red. masses --      1.4292                 1.3591                 1.8020
 Frc consts  --      0.2358                 0.1812                 0.1868
 IR Inten    --      0.2012                 2.8186                 3.8323

                     31                     32                     33
                      A                      A                      A
 Frequencies --   -400.1305              -372.3071              -341.8438
 Red. masses --      1.7043                 1.5525                 1.6592
 Frc consts  --      0.1608                 0.1268                 0.1142
 IR Inten    --      1.5870                 2.8214                 5.1412

                     34                     35                     36
                      A                      A                      A
 Frequencies --   -299.9856              -286.5692              -212.5335
 Red. masses --      1.5216                 1.7717                 1.6105
 Frc consts  --      0.0807                 0.0857                 0.0429
 IR Inten    --      0.9151                 0.2270                 2.7162

                     37                     38                     39
                      A                      A                      A
 Frequencies --   -164.6223              -114.8857                32.7254
 Red. masses --      1.2609                 2.8220                 5.0070
 Frc consts  --      0.0201                 0.0219                 0.0032
 IR Inten    --      3.9898                 1.4757                 1.0474

                     40                     41                     42
                      A                      A                      A
 Frequencies --     86.8171               105.1588               141.5004
 Red. masses --      6.4121                 7.2689                 4.8872
 Frc consts  --      0.0285                 0.0474                 0.0577
 IR Inten    --      0.3065                 0.3491                 1.1793

                     43                     44                     45
                      A                      A                      A
 Frequencies --    196.2502               276.2186               339.5492
 Red. masses --      5.0398                 4.4646                 4.9673
 Frc consts  --      0.1144                 0.2007                 0.3374
 IR Inten    --      0.3264                 0.0289                 0.6026

                     46                     47                     48
                      A                      A                      A
 Frequencies --    372.5214               417.6457               452.4311
 Red. masses --      4.4082                 4.2882                 4.5930
 Frc consts  --      0.3604                 0.4407                 0.5539
 IR Inten    --      2.0262                 0.6099                 0.5639

                     49                     50                     51
                      A                      A                      A
 Frequencies --    458.1974               471.3157               478.5899
 Red. masses --      1.1271                 2.4810                 1.1168
 Frc consts  --      0.1394                 0.3247                 0.1507
 IR Inten    --      6.7105                 1.6570                 3.1276

                     52                     53                     54
                      A                      A                      A
 Frequencies --    501.5110               523.4422               526.9369
 Red. masses --      3.9147                 4.2489                 4.4245
 Frc consts  --      0.5801                 0.6859                 0.7238
 IR Inten    --      2.2710                 1.7128                 0.1486

                     55                     56                     57
                      A                      A                      A
 Frequencies --    543.8217               606.6916               641.5177
 Red. masses --      4.6692                 2.9699                 1.1037
 Frc consts  --      0.8136                 0.6441                 0.2676
 IR Inten    --      2.0409                 0.0499                 0.2762

                     58                     59                     60
                      A                      A                      A
 Frequencies --    653.2134               669.2027               697.0426
 Red. masses --      2.7407                 2.7094                 4.7302
 Frc consts  --      0.6890                 0.7149                 1.3541
 IR Inten    --      1.6168                 1.4780                 0.2231

                     61                     62                     63
                      A                      A                      A
 Frequencies --    699.7146               721.0302               726.0094
 Red. masses --      4.2895                 2.8935                 4.2247
 Frc consts  --      1.2374                 0.8863                 1.3120
 IR Inten    --      0.3195                 1.8252                 7.9694

                     64                     65                     66
                      A                      A                      A
 Frequencies --    740.1130               741.6825               744.0532
 Red. masses --      2.7069                 3.8675                 3.2131
 Frc consts  --      0.8736                 1.2535                 1.0480
 IR Inten    --      2.2149                 5.0598                 4.2660

                     67                     68                     69
                      A                      A                      A
 Frequencies --    761.9321               772.8454               801.1796
 Red. masses --      2.3127                 2.8881                 3.4620
 Frc consts  --      0.7910                 1.0163                 1.3093
 IR Inten    --      4.3871                 2.2451                 3.5491

                     70                     71                     72
                      A                      A                      A
 Frequencies --    802.3217               812.5134               826.9755
 Red. masses --      4.4230                 3.8010                 2.2831
 Frc consts  --      1.6775                 1.4785                 0.9199
 IR Inten    --      4.0999                15.4270                 3.0039

                     73                     74                     75
                      A                      A                      A
 Frequencies --    857.2774               868.6746               882.5705
 Red. masses --      3.0899                 2.2415                 3.0893
 Frc consts  --      1.3379                 0.9965                 1.4178
 IR Inten    --      8.7896                 3.4216                 9.4163

                     76                     77                     78
                      A                      A                      A
 Frequencies --    915.4404               923.6951               955.5247
 Red. masses --      3.4965                 2.8384                 2.2223
 Frc consts  --      1.7264                 1.4268                 1.1955
 IR Inten    --      6.2426                 0.8732                 6.2154

                     79                     80                     81
                      A                      A                      A
 Frequencies --    966.6638               975.5093               977.3853
 Red. masses --      1.2141                 1.2462                 1.3665
 Frc consts  --      0.6684                 0.6987                 0.7691
 IR Inten    --      4.8685                54.2951                10.6060

                     82                     83                     84
                      A                      A                      A
 Frequencies --    981.3918               987.1321               994.7289
 Red. masses --      1.2477                 1.4678                 1.2526
 Frc consts  --      0.7080                 0.8427                 0.7303
 IR Inten    --     27.5437                 2.8081                11.5772

                     85                     86                     87
                      A                      A                      A
 Frequencies --   1000.7170              1011.4990              1014.4211
 Red. masses --      1.3847                 1.3501                 1.1973
 Frc consts  --      0.8170                 0.8139                 0.7259
 IR Inten    --      1.9466                 9.4954                13.1480

                     88                     89                     90
                      A                      A                      A
 Frequencies --   1015.9041              1043.7596              1056.2765
 Red. masses --      1.1878                 2.9023                 5.5831
 Frc consts  --      0.7223                 1.8629                 3.6701
 IR Inten    --     10.9682                28.1441                 7.9302

                     91                     92                     93
                      A                      A                      A
 Frequencies --   1058.0248              1068.0578              1078.4903
 Red. masses --      3.8246                 4.9421                 2.9405
 Frc consts  --      2.5225                 3.3216                 2.0151
 IR Inten    --      4.6583                 2.6280                 7.9486

                     94                     95                     96
                      A                      A                      A
 Frequencies --   1085.5929              1100.1040              1129.9880
 Red. masses --      3.0977                 3.2664                 3.5133
 Frc consts  --      2.1509                 2.3291                 2.6431
 IR Inten    --     19.2681                12.3789                 8.2469

                     97                     98                     99
                      A                      A                      A
 Frequencies --   1146.4240              1164.1935              1183.6136
 Red. masses --      3.7680                 3.1892                 5.5705
 Frc consts  --      2.9178                 2.5467                 4.5979
 IR Inten    --     28.4483                19.8684                 6.0584

                    100                    101                    102
                      A                      A                      A
 Frequencies --   1201.2961              1214.5316              1276.0578
 Red. masses --      4.8576                 6.0193                 6.3199
 Frc consts  --      4.1302                 5.2313                 6.0632
 IR Inten    --      2.9313                20.1535                11.5125

                    103                    104                    105
                      A                      A                      A
 Frequencies --   1280.7862              1292.3384              1309.3056
 Red. masses --      8.0685                 8.8583                 8.4157
 Frc consts  --      7.7982                 8.7167                 8.5001
 IR Inten    --     11.4750                19.6638                 2.0779

                    106                    107                    108
                      A                      A                      A
 Frequencies --   1320.6042              1375.0930              1396.9687
 Red. masses --      8.5746                 7.6410                 7.9007
 Frc consts  --      8.8106                 8.5127                 9.0843
 IR Inten    --      2.5849                19.3275                22.3291

                    109                    110                    111
                      A                      A                      A
 Frequencies --   1733.0099              1770.8876              1776.7628
 Red. masses --      9.9530                 9.8379                 9.8674
 Frc consts  --     17.6118                18.1774                18.3532
 IR Inten    --     29.4160                 9.8777                33.3782

                    112                    113                    114
                      A                      A                      A
 Frequencies --   1811.2794              4353.3185              4361.1857
 Red. masses --      9.9398                 1.0876                 1.0870
 Frc consts  --     19.2132                12.1439                12.1813
 IR Inten    --      4.7383                 6.0632                11.9392

                    115                    116                    117
                      A                      A                      A
 Frequencies --   4406.0419              4407.3924              4409.4853
 Red. masses --      1.0593                 1.0601                 1.0604
 Frc consts  --     12.1167                12.1329                12.1481
 IR Inten    --     15.2620                21.4750                15.1164

                    118                    119                    120
                      A                      A                      A
 Frequencies --   4415.4840              4419.0324              4422.8806
 Red. masses --      1.0593                 1.0597                 1.0607
 Frc consts  --     12.1678                12.1919                12.2246
 IR Inten    --     15.8300                17.0326                18.1133

                    121                    122                    123
                      A                      A                      A
 Frequencies --   4471.1610              4471.5678              4525.1942
 Red. masses --      1.0331                 1.0329                 1.1091
 Frc consts  --     12.1687                12.1688                13.3815
 IR Inten    --      3.9871                 6.1279                 6.3589

                    124                    125                    126
                      A                      A                      A
 Frequencies --   4526.2718              4530.9713              4538.4587
 Red. masses --      1.1087                 1.1088                 1.1098
 Frc consts  --     13.3829                13.4121                13.4678
 IR Inten    --      4.8944                11.0323                 4.6910

                    127                    128                    129
                      A                      A                      A
 Frequencies --   4539.1956              4545.2464              4673.0443
 Red. masses --      1.1090                 1.1086                 1.1064
 Frc consts  --     13.4624                13.4934                14.2347
 IR Inten    --      6.1771                15.3997                 0.7753

                    130                    131                    132
                      A                      A                      A
 Frequencies --   4676.6192              4681.3424              4683.3924
 Red. masses --      1.1066                 1.1065                 1.1066
 Frc consts  --     14.2598                14.2877                14.3006
 IR Inten    --      0.2214                 0.2827                 0.1443

                    133                    134                    135
                      A                      A                      A
 Frequencies --   5036.3123              5041.4176              5047.4388
 Red. masses --      1.0907                 1.0902                 1.0936
 Frc consts  --     16.2994                16.3247                16.4153
 IR Inten    --      0.7589                 0.5322                 2.5097

                    136                    137                    138
                      A                      A                      A
 Frequencies --   5051.0339              5326.7859              5336.1551
 Red. masses --      1.0941                 1.0750                 1.0756
 Frc consts  --     16.4461                17.9720                18.0451
 IR Inten    --      3.0377                 3.8199                 5.0441

 - Thermochemistry -
 -------------------
 Temperature   298.150 Kelvin.  Pressure   1.00000 Atm.
 Atom     1 has atomic number  7 and mass  14.00307

 Molecular mass:   302.19943 amu.
 Principal axes and moments of inertia in atomic units:
                           1         2         3
     Eigenvalues --  4766.489928282.28044**********
           X            0.99981   0.01927   0.00353
           Y           -0.01929   0.99980   0.00473
           Z           -0.00343  -0.00480   0.99998
 This molecule is an asymmetric top.
 Rotational symmetry number  1.
 Warning -- assumption of classical behavior for rotation
           may cause significant error
 Rotational temperatures (Kelvin)      0.01817     0.01046     0.00785
 Rotational constants (GHZ):           0.37863     0.21790     0.16353
   38 imaginary frequencies ignored.
 Zero-point vibrational energy    1109184.0 (Joules/Mol)
                                  265.10134 (Kcal/Mol)
 Warning -- explicit consideration of  18 degrees of freedom as
           vibrations may cause significant error
 Vibrational temperatures:     47.08   124.91   151.30   203.59   282.36
          (Kelvin)            397.42   488.54   535.98   600.90   650.95
                              659.24   678.12   688.58   721.56   753.12
                              758.14   782.44   872.89   923.00   939.83
                              962.83  1002.89  1006.73  1037.40  1044.57
                             1064.86  1067.12  1070.53  1096.25  1111.95
                             1152.72  1154.36  1169.03  1189.83  1233.43
                             1249.83  1269.82  1317.11  1328.99  1374.79
                             1390.81  1403.54  1406.24  1412.00  1420.26
                             1431.19  1439.81  1455.32  1459.53  1461.66
                             1501.74  1519.75  1522.26  1536.70  1551.71
                             1561.93  1582.80  1625.80  1649.45  1675.01
                             1702.96  1728.40  1747.44  1835.96  1842.77
                             1859.39  1883.80  1900.05  1978.45  2009.93
                             2493.41  2547.91  2556.37  2606.03  6263.45
                             6274.77  6339.31  6341.25  6344.27  6352.90
                             6358.00  6363.54  6433.00  6433.59  6510.75
                             6512.30  6519.06  6529.83  6530.89  6539.60
                             6723.47  6728.61  6735.41  6738.36  7246.13
                             7253.48  7262.14  7267.31  7664.06  7677.54

 Zero-point correction=                           0.422466 (Hartree/Particle)
 Thermal correction to Energy=                    0.435018
 Thermal correction to Enthalpy=                  0.435962
 Thermal correction to Gibbs Free Energy=         0.382354
 Sum of electronic and zero-point Energies=           -958.882379
 Sum of electronic and thermal Energies=              -958.869827
 Sum of electronic and thermal Enthalpies=            -958.868883
 Sum of electronic and thermal Free Energies=         -958.922491

                     E (Thermal)             CV                S
                      KCal/Mol        Cal/Mol-Kelvin    Cal/Mol-Kelvin
 Total                  272.978             56.626            112.827
 Electronic               0.000              0.000              0.000
 Translational            0.889              2.981             43.015
 Rotational               0.889              2.981             34.432
 Vibrational            271.200             50.664             35.381
 Vibration     1          0.594              1.983              5.657
 Vibration     2          0.601              1.958              3.731
 Vibration     3          0.605              1.945              3.356
 Vibration     4          0.615              1.912              2.783
 Vibration     5          0.636              1.845              2.168
 Vibration     6          0.678              1.717              1.557
 Vibration     7          0.719              1.596              1.214
 Vibration     8          0.744              1.529              1.069
 Vibration     9          0.781              1.432              0.900
 Vibration    10          0.811              1.356              0.788
 Vibration    11          0.816              1.343              0.771
 Vibration    12          0.828              1.314              0.734
 Vibration    13          0.835              1.298              0.714
 Vibration    14          0.857              1.247              0.654
 Vibration    15          0.878              1.198              0.602
 Vibration    16          0.882              1.190              0.594
 Vibration    17          0.899              1.153              0.557
 Vibration    18          0.965              1.018              0.438

 Normal termination of Gaussian 16 at Sat Mar  4 13:23:24 2023.
