 Gaussian 16, Revision C.01,
 Gaussian 16:  ES64L-G16RevC.01  3-Jul-2019

 ----------------------------------------------------------------------
 #p pop=(regular,nbo,savenbos) freq=noraman def2svp empiricaldispersion
 =gd3bj output=wfx pbe1pbe
 ----------------------------------------------------------------------

 ----------------------------------------
 EJIMES_Complex_0_Ligand_2_ON_Cu_oriented
 ----------------------------------------
 Symbolic Z-matrix:
 Charge = -1 Multiplicity = 1

                         Standard orientation:
 ---------------------------------------------------------------------
 Center     Atomic      Atomic             Coordinates (Angstroms)
 Number     Number       Type             X           Y           Z
 ---------------------------------------------------------------------
      1          7           0       -2.284062   -1.445152    1.053492
      2          1           0       -1.710452   -1.439222    1.759802
      3          1           0       -1.981156   -2.051900    0.446864
      4          6           0       -2.325197   -0.099424    0.433797
      5          6           0       -1.431590    0.038755   -0.803260
      6          1           0       -1.621579   -0.709913   -1.422604
      7          9           0        2.671190    2.413589    0.402743
      8          9           0        0.042205    2.384458   -0.243506
      9          6           0        0.041212    0.038974   -0.470660
     10          6           0        2.775451    0.076868    0.169869
     11          6           0        2.059687    1.253023    0.127296
     12          6           0        0.718604    1.220638   -0.193523
     13          9           0        0.209368   -2.306174   -0.682754
     14          9           0        2.838479   -2.265128   -0.073623
     15          6           0        0.796064   -1.125968   -0.422533
     16          6           0        2.145861   -1.119946   -0.113548
     17          8           0       -4.702442   -0.338764    0.727290
     18          8           0       -3.994374    1.180763   -0.723356
     19          6           0       -3.780116    0.276873    0.100039
     20          9           0        4.075280    0.082811    0.486052
     21          1           0       -1.656516    0.882017   -1.270419
     22          1           0       -1.995872    0.554327    1.115367
 ---------------------------------------------------------------------

 SCF Done:  E(RPBE1PBE) =  -1048.47881993     A.U. after   18 cycles

 The electronic state is 1-A.
 Alpha  occ. eigenvalues --  -24.73116 -24.72731 -24.72572 -24.71666 -24.70878
 Alpha  occ. eigenvalues --  -18.93962 -18.92592 -14.20440 -10.26124 -10.25813
 Alpha  occ. eigenvalues --  -10.25708 -10.25188 -10.25007 -10.17646 -10.10378
 Alpha  occ. eigenvalues --  -10.10199 -10.10066  -1.19532  -1.18426  -1.17644
 Alpha  occ. eigenvalues --   -1.16646  -1.15884  -0.83903  -0.83163  -0.77969
 Alpha  occ. eigenvalues --   -0.73181  -0.72326  -0.70859  -0.65043  -0.59278
 Alpha  occ. eigenvalues --   -0.58706  -0.53356  -0.52512  -0.51974  -0.49777
 Alpha  occ. eigenvalues --   -0.47906  -0.47056  -0.46023  -0.44693  -0.42854
 Alpha  occ. eigenvalues --   -0.41739  -0.40484  -0.39966  -0.39399  -0.37695
 Alpha  occ. eigenvalues --   -0.37456  -0.36541  -0.34416  -0.34091  -0.33465
 Alpha  occ. eigenvalues --   -0.31234  -0.30200  -0.28923  -0.27955  -0.26113
 Alpha  occ. eigenvalues --   -0.23001  -0.19590  -0.18587  -0.18304  -0.17626
 Alpha  occ. eigenvalues --   -0.11367  -0.04773  -0.04418  -0.02054
 Alpha virt. eigenvalues --    0.07195   0.07723   0.10007   0.19053   0.20066
 Alpha virt. eigenvalues --    0.23732   0.24592   0.25681   0.26622   0.28335
 Alpha virt. eigenvalues --    0.29672   0.30982   0.31906   0.34658   0.36288

 Mulliken charges:
               1
     1  N   -0.076087
     2  H    0.030666
     3  H    0.028009
     4  C   -0.082728
     5  C    0.268291
     6  H   -0.028709
     7  F   -0.201581
     8  F   -0.197326
     9  C   -0.265012
    10  C    0.124944
    11  C    0.190129
    12  C    0.210463
    13  F   -0.202659
    14  F   -0.201145
    15  C    0.185628
    16  C    0.184037
    17  O   -0.434370
    18  O   -0.424146
    19  C    0.147015
    20  F   -0.202267
    21  H   -0.025958
    22  H   -0.027194
 Sum of Mulliken charges =  -1.00000

 Dipole moment (field-independent basis, Debye):
    X=             16.8076    Y=             -1.4415    Z=             -0.5570  Tot=             16.8785
 Quadrupole moment (field-independent basis, Debye-Ang):
   XX=           -194.5334   YY=           -106.4500   ZZ=            -94.5752
   XY=              4.5564   XZ=              2.6715   YZ=              4.1345

  Exact polarizability:     166.127       0.886     103.185       1.205      -2.801      67.599
 Approx polarizability:     232.469       3.499     177.097       3.276      -5.364     105.051

 Summary of Natural Population Analysis:

                                       Natural Population
                Natural  -----------------------------------------------
    Atom  No    Charge         Core      Valence    Rydberg      Total
 -----------------------------------------------------------------------
      N    1   -0.79447      1.99944     5.77269    0.02234     7.79447
      H    2    0.31285      0.00000     0.68133    0.00582     0.68715
      H    3    0.31617      0.00000     0.67731    0.00651     0.68383
      C    4   -0.10079      1.99897     4.07825    0.02357     6.10079
      C    5   -0.42571      1.99903     4.40329    0.02339     6.42571
      H    6    0.20783      0.00000     0.78719    0.00498     0.79217
      F    7   -0.33373      1.99991     7.32794    0.00588     9.33373
      F    8   -0.33161      1.99991     7.32632    0.00538     9.33161
      C    9   -0.12397      1.99885     4.10410    0.02102     6.12397
      C   10    0.29957      1.99835     3.67318    0.02889     5.70043
      C   11    0.29928      1.99829     3.67323    0.02920     5.70072
      C   12    0.37700      1.99824     3.59544    0.02932     5.62300
      F   13   -0.34035      1.99990     7.33494    0.00551     9.34035
      F   14   -0.33459      1.99990     7.32877    0.00592     9.33459
      C   15    0.36498      1.99825     3.60583    0.03093     5.63502
      C   16    0.30087      1.99832     3.67146    0.02935     5.69913
      O   17   -0.76623      1.99977     6.75786    0.00860     8.76623
      O   18   -0.79196      1.99974     6.78248    0.00974     8.79196
      C   19    0.77543      1.99943     3.15275    0.07239     5.22457
      F   20   -0.33394      1.99990     7.32807    0.00597     9.33394
      H   21    0.24113      0.00000     0.74869    0.01018     0.75887
      H   22    0.18225      0.00000     0.81300    0.00475     0.81775
 =======================================================================
   * Total *   -1.00000     33.98621    93.62415    0.38964   128.00000

 ******    8 imaginary frequencies (negative Signs) ******

                      1                      2                      3
                      A                      A                      A
 Frequencies --  -1473.4771             -1245.6847              -889.8860
 Red. masses --      1.0355                 1.1318                 1.0384
 Frc consts  --      1.3246                 1.0347                 0.4845
 IR Inten    --     44.0148               254.6879                 0.6590

                      4                      5                      6
                      A                      A                      A
 Frequencies --   -827.9909              -228.8265              -161.6000
 Red. masses --      1.1113                 2.4512                 4.0398
 Frc consts  --      0.4489                 0.0756                 0.0622
 IR Inten    --      2.8572                 4.7068                 7.7556

                      7                      8                      9
                      A                      A                      A
 Frequencies --   -137.7212               -53.9773                84.7088
 Red. masses --      4.2558                12.8896                 7.8601
 Frc consts  --      0.0476                 0.0221                 0.0332
 IR Inten    --     12.6249                 0.7978                 8.2497

                     10                     11                     12
                      A                      A                      A
 Frequencies --    122.8550               141.6960               159.1443
 Red. masses --      3.3630                16.1296                 5.4815
 Frc consts  --      0.0299                 0.1908                 0.0818
 IR Inten    --      0.1903                 0.2509                 0.7394

                     13                     14                     15
                      A                      A                      A
 Frequencies --    185.2733               237.7054               277.0156
 Red. masses --      4.9947                 9.7141                18.5718
 Frc consts  --      0.1010                 0.3234                 0.8397
 IR Inten    --      3.4352                 3.5414                 0.0186

                     16                     17                     18
                      A                      A                      A
 Frequencies --    281.6348               308.0232               317.0523
 Red. masses --     16.9125                 4.6098                12.2858
 Frc consts  --      0.7904                 0.2577                 0.7276
 IR Inten    --      0.6926                 2.3343                 2.8603

                     19                     20                     21
                      A                      A                      A
 Frequencies --    333.3156               360.0523               406.8916
 Red. masses --      4.9245                 8.1134                 5.2108
 Frc consts  --      0.3223                 0.6197                 0.5083
 IR Inten    --      8.6073                 0.5206                 4.1784

                     22                     23                     24
                      A                      A                      A
 Frequencies --    415.4883               447.7649               464.4132
 Red. masses --     12.0521                14.7651                 5.0689
 Frc consts  --      1.2258                 1.7442                 0.6441
 IR Inten    --      0.5900                 0.1759                16.3218

                     25                     26                     27
                      A                      A                      A
 Frequencies --    485.8413               493.5571               540.3157
 Red. masses --      6.2083                 7.1837                 4.9415
 Frc consts  --      0.8634                 1.0310                 0.8500
 IR Inten    --      4.8580                 3.6038                 6.6474

                     28                     29                     30
                      A                      A                      A
 Frequencies --    558.3285               583.4986               629.5794
 Red. masses --      3.0975                15.4666                 9.6934
 Frc consts  --      0.5689                 3.1026                 2.2638
 IR Inten    --      8.8999                 3.1234                42.2028

                     31                     32                     33
                      A                      A                      A
 Frequencies --    649.6914               695.5388               769.4953
 Red. masses --     12.1731                 3.0092                 5.9072
 Frc consts  --      3.0274                 0.8577                 2.0608
 IR Inten    --      1.2374                 2.5077                 9.1738

                     34                     35                     36
                      A                      A                      A
 Frequencies --    838.2791               847.5027               918.7560
 Red. masses --      5.5822                 6.7513                 2.8175
 Frc consts  --      2.3112                 2.8571                 1.4012
 IR Inten    --      5.2772                24.5246                 8.4570

                     37                     38                     39
                      A                      A                      A
 Frequencies --    943.9107               991.1707              1018.2761
 Red. masses --      2.1289                 2.8153                 3.5697
 Frc consts  --      1.1176                 1.6295                 2.1808
 IR Inten    --     52.1170                64.3055                37.7693

                     40                     41                     42
                      A                      A                      A
 Frequencies --   1033.5901              1083.7519              1095.1516
 Red. masses --      8.4736                 1.8387                 1.9607
 Frc consts  --      5.3335                 1.2724                 1.3855
 IR Inten    --    235.8088                44.3909                32.3335

                     43                     44                     45
                      A                      A                      A
 Frequencies --   1149.0691              1156.9525              1167.1024
 Red. masses --      5.0759                 2.6923                 3.5035
 Frc consts  --      3.9487                 2.1233                 2.8117
 IR Inten    --     32.9403                37.7675                11.3618

                     46                     47                     48
                      A                      A                      A
 Frequencies --   1170.3277              1319.3453              1414.4558
 Red. masses --      3.2155                12.4726                11.9570
 Frc consts  --      2.5948                12.7916                14.0945
 IR Inten    --      0.3869                 7.0503               408.0499

                     49                     50                     51
                      A                      A                      A
 Frequencies --   1444.5353              1477.1226              1576.7185
 Red. masses --     11.3458                11.2698                11.5866
 Frc consts  --     13.9489                14.4877                16.9713
 IR Inten    --      2.6934                 0.8985               304.4554

                     52                     53                     54
                      A                      A                      A
 Frequencies --   1593.1672              1738.0334              1742.9208
 Red. masses --     12.2563                12.7792                11.7158
 Frc consts  --     18.3287                22.7442                20.9689
 IR Inten    --    241.0187               330.1645                 4.3285

                     55                     56                     57
                      A                      A                      A
 Frequencies --   1757.8333              4126.7674              4198.7978
 Red. masses --     12.0686                 1.0871                 1.0601
 Frc consts  --     21.9716                10.9078                11.0119
 IR Inten    --     58.4357                10.8090                 5.2147

                     58                     59                     60
                      A                      A                      A
 Frequencies --   4312.7445              4957.8485              5091.0502
 Red. masses --      1.1079                 1.0501                 1.0953
 Frc consts  --     12.1407                15.2083                16.7264
 IR Inten    --      6.9557                 0.4258                 5.4859

 - Thermochemistry -
 -------------------
 Temperature   298.150 Kelvin.  Pressure   1.00000 Atm.
 Atom     1 has atomic number  7 and mass  14.00307

 Molecular mass:   254.02404 amu.
 Principal axes and moments of inertia in atomic units:
                           1         2         3
     Eigenvalues --  2217.800796604.981048292.36135
           X            0.99999   0.00427  -0.00264
           Y           -0.00430   0.99993  -0.01082
           Z            0.00260   0.01083   0.99994
 This molecule is an asymmetric top.
 Rotational symmetry number  1.
 Warning -- assumption of classical behavior for rotation
           may cause significant error
 Rotational temperatures (Kelvin)      0.03905     0.01311     0.01045
 Rotational constants (GHZ):           0.81375     0.27324     0.21764
    8 imaginary frequencies ignored.
 Zero-point vibrational energy     359561.9 (Joules/Mol)
                                   85.93737 (Kcal/Mol)
 Warning -- explicit consideration of  21 degrees of freedom as
           vibrations may cause significant error
 Vibrational temperatures:    121.88   176.76   203.87   228.97   266.57
          (Kelvin)            342.01   398.56   405.21   443.18   456.17
                              479.57   518.03   585.43   597.80   644.23
                              668.19   699.02   710.12   777.39   803.31
                              839.52   905.82   934.76  1000.73  1107.13
                             1206.10  1219.37  1321.88  1358.08  1426.07
                             1465.07  1487.11  1559.28  1575.68  1653.25
                             1664.60  1679.20  1683.84  1898.24  2035.09
                             2078.36  2125.25  2268.55  2292.21  2500.64
                             2507.67  2529.13  5937.50  6041.13  6205.08
                             7133.24  7324.89

 Zero-point correction=                           0.136950 (Hartree/Particle)
 Thermal correction to Energy=                    0.149161
 Thermal correction to Enthalpy=                  0.150105
 Thermal correction to Gibbs Free Energy=         0.098309
 Sum of electronic and zero-point Energies=          -1048.341870
 Sum of electronic and thermal Energies=             -1048.329659
 Sum of electronic and thermal Enthalpies=           -1048.328715
 Sum of electronic and thermal Free Energies=        -1048.380511

                     E (Thermal)             CV                S
                      KCal/Mol        Cal/Mol-Kelvin    Cal/Mol-Kelvin
 Total                   93.600             47.396            109.013
 Electronic               0.000              0.000              0.000
 Translational            0.889              2.981             42.497
 Rotational               0.889              2.981             33.163
 Vibrational             91.822             41.434             33.353
 Vibration     1          0.601              1.960              3.779
 Vibration     2          0.610              1.930              3.055
 Vibration     3          0.615              1.912              2.781
 Vibration     4          0.621              1.892              2.560
 Vibration     5          0.631              1.860              2.275
 Vibration     6          0.656              1.783              1.820
 Vibration     7          0.678              1.716              1.552
 Vibration     8          0.681              1.708              1.524
 Vibration     9          0.698              1.658              1.373
 Vibration    10          0.704              1.641              1.325
 Vibration    11          0.715              1.609              1.244
 Vibration    12          0.735              1.555              1.122
 Vibration    13          0.772              1.455              0.938
 Vibration    14          0.779              1.437              0.907
 Vibration    15          0.807              1.366              0.803
 Vibration    16          0.822              1.329              0.753
 Vibration    17          0.842              1.281              0.694
 Vibration    18          0.849              1.264              0.674
 Vibration    19          0.895              1.161              0.565
 Vibration    20          0.914              1.121              0.527
 Vibration    21          0.940              1.067              0.479

 Normal termination of Gaussian 16 at Mon Mar  6 10:42:15 2023.
