 Gaussian 16, Revision C.01,
 Gaussian 16:  ES64L-G16RevC.01  3-Jul-2019

 ----------------------------------------------------------------------
 #p pop=(regular,nbo,savenbos) freq=noraman def2svp empiricaldispersion
 =gd3bj output=wfx pbe1pbe
 ----------------------------------------------------------------------

 -----------------------------------------
 ELEXID_Complex_15_Ligand_2_NN_Cu_oriented
 -----------------------------------------
 Symbolic Z-matrix:
 Charge =  0 Multiplicity = 1

                         Standard orientation:
 ---------------------------------------------------------------------
 Center     Atomic      Atomic             Coordinates (Angstroms)
 Number     Number       Type             X           Y           Z
 ---------------------------------------------------------------------
      1          6           0       -2.694057   -1.756284    0.053430
      2          1           0       -3.117988   -2.581033    0.130114
      3          6           0       -3.448122   -0.609833   -0.068629
      4          1           0       -4.376281   -0.660855   -0.079216
      5          6           0       -2.828955    0.600110   -0.174399
      6          1           0       -3.335512    1.373881   -0.272759
      7          6           0       -1.456141    0.679326   -0.135346
      8          6           0       -0.726901   -0.493819   -0.015016
      9          7           0       -1.335791   -1.692041    0.060399
     10          6           0       -0.741754    1.963853   -0.227788
     11          8           0        0.069710    2.326202    1.005418
     12          6           0        0.773462    1.950078   -0.293513
     13          1           0        1.212573    2.666315   -0.797026
     14          6           0        1.452142    0.658252   -0.211934
     15          6           0        2.826631    0.564970   -0.248165
     16          1           0        3.346812    1.324547   -0.384687
     17          6           0        3.420551   -0.649115   -0.083007
     18          1           0        4.346010   -0.722665   -0.118142
     19          6           0        2.635624   -1.791628    0.139968
     20          1           0        3.046137   -2.613922    0.282911
     21          6           0        0.743083   -0.504102    0.003391
     22          7           0        1.305682   -1.702616    0.146997
     23          1           0       -1.202054    2.695876   -0.690270
 ---------------------------------------------------------------------

 SCF Done:  E(RPBE1PBE) =  -645.422738306     A.U. after   14 cycles

 The electronic state is 1-A.
 Alpha  occ. eigenvalues --  -19.23200 -14.38528 -14.38469 -10.29822 -10.29794
 Alpha  occ. eigenvalues --  -10.27555 -10.27499 -10.25965 -10.25809 -10.25440
 Alpha  occ. eigenvalues --  -10.25420 -10.24226 -10.24158 -10.23235 -10.23005
 Alpha  occ. eigenvalues --   -1.05793  -0.98058  -0.95549  -0.85197  -0.84318
 Alpha  occ. eigenvalues --   -0.83332  -0.79008  -0.73422  -0.69892  -0.69562
 Alpha  occ. eigenvalues --   -0.66558  -0.64487  -0.61373  -0.58760  -0.55647
 Alpha  occ. eigenvalues --   -0.54133  -0.52963  -0.49968  -0.49795  -0.47090
 Alpha  occ. eigenvalues --   -0.46370  -0.44805  -0.44456  -0.44237  -0.43423
 Alpha  occ. eigenvalues --   -0.40495  -0.40178  -0.39311  -0.35367  -0.32434
 Alpha  occ. eigenvalues --   -0.30441  -0.30080  -0.28381  -0.26780  -0.25812
 Alpha  occ. eigenvalues --   -0.25165
 Alpha virt. eigenvalues --   -0.05690  -0.03630  -0.02975   0.02172   0.08547
 Alpha virt. eigenvalues --    0.08837   0.09636   0.10199   0.11199   0.12707
 Alpha virt. eigenvalues --    0.14136   0.15810   0.15986   0.17288   0.18782

 Mulliken charges:
               1
     1  C    0.219939
     2  H   -0.071326
     3  C    0.052255
     4  H   -0.086695
     5  C    0.141230
     6  H   -0.111072
     7  C    0.037714
     8  C   -0.004474
     9  N   -0.159538
    10  C    0.165554
    11  O   -0.360312
    12  C    0.186472
    13  H   -0.021868
    14  C    0.005499
    15  C    0.149917
    16  H   -0.109311
    17  C    0.048279
    18  H   -0.085708
    19  C    0.213394
    20  H   -0.074069
    21  C    0.012231
    22  N   -0.125115
    23  H   -0.022996
 Sum of Mulliken charges =  -0.00000

 Dipole moment (field-independent basis, Debye):
    X=              0.0109    Y=              2.0308    Z=             -2.3272  Tot=              3.0887
 Quadrupole moment (field-independent basis, Debye-Ang):
   XX=            -61.9437   YY=            -85.3206   ZZ=            -87.7346
   XY=             -0.4284   XZ=             -0.2800   YZ=             -6.1365

  Exact polarizability:     188.111      -0.020     131.583      -0.344      -5.447      62.690
 Approx polarizability:     282.928       0.688     233.709      -0.793      -7.985     105.895

 Summary of Natural Population Analysis:

                                       Natural Population
                Natural  -----------------------------------------------
    Atom  No    Charge         Core      Valence    Rydberg      Total
 -----------------------------------------------------------------------
      C    1    0.12154      1.99911     3.85945    0.01990     5.87846
      H    2    0.15260      0.00000     0.84459    0.00281     0.84740
      C    3   -0.19667      1.99910     4.18446    0.01311     6.19667
      H    4    0.17457      0.00000     0.82217    0.00326     0.82543
      C    5   -0.12714      1.99901     4.11256    0.01558     6.12714
      H    6    0.17657      0.00000     0.82030    0.00313     0.82343
      C    7   -0.09944      1.99890     4.08404    0.01650     6.09944
      C    8    0.21286      1.99883     3.76100    0.02731     5.78714
      N    9   -0.44143      1.99931     5.42610    0.01602     7.44143
      C   10    0.11960      1.99887     3.85971    0.02181     5.88040
      O   11   -0.55193      1.99987     6.54299    0.00907     8.55193
      C   12    0.11721      1.99886     3.86203    0.02190     5.88279
      H   13    0.18235      0.00000     0.81408    0.00358     0.81765
      C   14   -0.09921      1.99889     4.08376    0.01656     6.09921
      C   15   -0.12657      1.99902     4.11199    0.01557     6.12657
      H   16    0.17680      0.00000     0.82006    0.00314     0.82320
      C   17   -0.19403      1.99911     4.18170    0.01323     6.19403
      H   18    0.17262      0.00000     0.82420    0.00318     0.82738
      C   19    0.12819      1.99914     3.85220    0.02048     5.87181
      H   20    0.15157      0.00000     0.84562    0.00281     0.84843
      C   21    0.20726      1.99881     3.76625    0.02768     5.79274
      N   22   -0.43832      1.99929     5.42205    0.01698     7.43832
      H   23    0.18102      0.00000     0.81537    0.00362     0.81898
 =======================================================================
   * Total *   -0.00000     29.98612    71.71665    0.29724   102.00000

 ******   15 imaginary frequencies (negative Signs) ******

                      1                      2                      3
                      A                      A                      A
 Frequencies --  -1427.0597             -1423.4436             -1311.8255
 Red. masses --      1.0729                 1.1010                 1.0287
 Frc consts  --      1.2873                 1.3144                 1.0431
 IR Inten    --     60.5326                10.5767                 0.0760

                      4                      5                      6
                      A                      A                      A
 Frequencies --  -1301.8711             -1220.5209             -1217.6320
 Red. masses --      1.0556                 1.0314                 1.0312
 Frc consts  --      1.0542                 0.9053                 0.9008
 IR Inten    --      0.1030                 0.1124                 0.0472

                      7                      8                      9
                      A                      A                      A
 Frequencies --   -925.6100              -914.8967              -782.5346
 Red. masses --      1.1050                 1.1038                 1.1015
 Frc consts  --      0.5578                 0.5444                 0.3974
 IR Inten    --      1.8922                 1.7344                 3.9350

                     10                     11                     12
                      A                      A                      A
 Frequencies --   -780.4998              -739.8185              -709.3702
 Red. masses --      1.1187                 1.1034                 1.1563
 Frc consts  --      0.4015                 0.3558                 0.3428
 IR Inten    --     18.9263                10.9130                 3.3177

                     13                     14                     15
                      A                      A                      A
 Frequencies --   -703.6232              -623.2895               -36.6150
 Red. masses --      1.1386                 1.1078                 2.7164
 Frc consts  --      0.3321                 0.2536                 0.0021
 IR Inten    --      0.7038                 4.5185                 5.8237

                     16                     17                     18
                      A                      A                      A
 Frequencies --    167.7161               192.8108               277.8673
 Red. masses --      7.6223                 6.2041                 3.1324
 Frc consts  --      0.1263                 0.1359                 0.1425
 IR Inten    --      0.7047                 0.1953                 0.4874

                     19                     20                     21
                      A                      A                      A
 Frequencies --    345.4406               372.1778               421.2760
 Red. masses --      3.9252                 8.0273                 6.4716
 Frc consts  --      0.2760                 0.6551                 0.6767
 IR Inten    --      1.0555                 0.2891                 4.3434

                     22                     23                     24
                      A                      A                      A
 Frequencies --    450.1740               494.7581               506.1080
 Red. masses --      6.2308                 4.8840                 6.0781
 Frc consts  --      0.7440                 0.7044                 0.9173
 IR Inten    --      0.1166                 0.3750                 0.3144

                     25                     26                     27
                      A                      A                      A
 Frequencies --    522.7776               597.3226               638.2446
 Red. masses --     10.2940                 6.4850                10.5558
 Frc consts  --      1.6576                 1.3633                 2.5335
 IR Inten    --      6.2061                 5.7013                 0.4541

                     28                     29                     30
                      A                      A                      A
 Frequencies --    666.5568               683.4180               684.2794
 Red. masses --      2.4366                 3.8362                10.1109
 Frc consts  --      0.6378                 1.0557                 2.7894
 IR Inten    --      9.7797                 4.4910                 0.2033

                     31                     32                     33
                      A                      A                      A
 Frequencies --    708.1764               716.5704               735.9770
 Red. masses --      4.9945                 5.1314                 8.3088
 Frc consts  --      1.4758                 1.5524                 2.6517
 IR Inten    --     20.1756                 5.0953                23.5165

                     34                     35                     36
                      A                      A                      A
 Frequencies --    767.5140               791.7489               820.4210
 Red. masses --      3.2567                 6.4725                 8.0395
 Frc consts  --      1.1303                 2.3906                 3.1883
 IR Inten    --      0.2614                 0.7166                 7.6263

                     37                     38                     39
                      A                      A                      A
 Frequencies --    833.3952               860.1717               925.2259
 Red. masses --      6.4518                10.0659                 6.2928
 Frc consts  --      2.6402                 4.3881                 3.1739
 IR Inten    --     14.6048                 0.4993                19.7597

                     40                     41                     42
                      A                      A                      A
 Frequencies --    962.4446              1098.0256              1133.2804
 Red. masses --      6.6682                 7.5098                 8.6606
 Frc consts  --      3.6392                 5.3346                 6.5535
 IR Inten    --      3.0868                 4.3454                 2.5492

                     43                     44                     45
                      A                      A                      A
 Frequencies --   1243.4782              1260.7647              1287.3448
 Red. masses --      9.0733                 8.4250                 8.6012
 Frc consts  --      8.2659                 7.8902                 8.3985
 IR Inten    --      8.6969                12.9658                 1.4374

                     46                     47                     48
                      A                      A                      A
 Frequencies --   1340.7273              1379.9488              1419.1546
 Red. masses --      9.9141                 9.3427                10.0071
 Frc consts  --     10.4999                10.4821                11.8745
 IR Inten    --      0.1078                 3.8540                 5.2128

                     49                     50                     51
                      A                      A                      A
 Frequencies --   1454.2250              1505.3716              1518.2114
 Red. masses --     10.4033                10.1328                 9.9815
 Frc consts  --     12.9623                13.5290                13.5554
 IR Inten    --      7.7180                 3.9834                12.8441

                     52                     53                     54
                      A                      A                      A
 Frequencies --   1685.0711              1693.0175              1697.2608
 Red. masses --     10.8508                10.7760                10.6919
 Frc consts  --     18.1531                18.1982                18.1470
 IR Inten    --     52.7937                 7.7511                31.3778

                     55                     56                     57
                      A                      A                      A
 Frequencies --   1726.4186              4391.2210              4407.7532
 Red. masses --     11.1343                 1.0890                 1.0896
 Frc consts  --     19.5526                12.3726                12.4721
 IR Inten    --      1.6647                 2.7478                 3.5876

                     58                     59                     60
                      A                      A                      A
 Frequencies --   5023.3308              5029.0839              5036.9157
 Red. masses --      1.0890                 1.0877                 1.0894
 Frc consts  --     16.1910                16.2085                16.2845
 IR Inten    --      0.1743                 0.3244                 0.3681

                     61                     62                     63
                      A                      A                      A
 Frequencies --   5040.9251              5045.9971              5052.4364
 Red. masses --      1.0892                 1.0925                 1.0914
 Frc consts  --     16.3072                16.3888                16.4145
 IR Inten    --      0.8625                 0.1146                 0.0685

 - Thermochemistry -
 -------------------
 Temperature   298.150 Kelvin.  Pressure   1.00000 Atm.
 Atom     1 has atomic number  6 and mass  12.00000

 Molecular mass:   196.06366 amu.
 Principal axes and moments of inertia in atomic units:
                           1         2         3
     Eigenvalues --  1512.988213130.443574487.66486
           X            1.00000  -0.00071  -0.00026
           Y            0.00071   0.99988  -0.01517
           Z            0.00027   0.01517   0.99988
 This molecule is an asymmetric top.
 Rotational symmetry number  1.
 Warning -- assumption of classical behavior for rotation
           may cause significant error
 Rotational temperatures (Kelvin)      0.05725     0.02767     0.01930
 Rotational constants (GHZ):           1.19283     0.57651     0.40216
   15 imaginary frequencies ignored.
 Zero-point vibrational energy     452263.4 (Joules/Mol)
                                  108.09355 (Kcal/Mol)
 Warning -- explicit consideration of  11 degrees of freedom as
           vibrations may cause significant error
 Vibrational temperatures:    241.31   277.41   399.79   497.01   535.48
          (Kelvin)            606.12   647.70   711.85   728.18   752.16
                              859.41   918.29   959.03   983.29   984.53
                             1018.91  1030.98  1058.91  1104.28  1139.15
                             1180.40  1199.07  1237.60  1331.19  1384.74
                             1579.81  1630.54  1789.09  1813.96  1852.20
                             1929.01  1985.44  2041.85  2092.31  2165.89
                             2184.37  2424.44  2435.87  2441.98  2483.93
                             6317.99  6341.77  7227.45  7235.73  7247.00
                             7252.77  7260.06  7269.33

 Zero-point correction=                           0.172258 (Hartree/Particle)
 Thermal correction to Energy=                    0.180218
 Thermal correction to Enthalpy=                  0.181162
 Thermal correction to Gibbs Free Energy=         0.138654
 Sum of electronic and zero-point Energies=           -645.250480
 Sum of electronic and thermal Energies=              -645.242521
 Sum of electronic and thermal Enthalpies=            -645.241576
 Sum of electronic and thermal Free Energies=         -645.284084

                     E (Thermal)             CV                S
                      KCal/Mol        Cal/Mol-Kelvin    Cal/Mol-Kelvin
 Total                  113.088             33.766             89.465
 Electronic               0.000              0.000              0.000
 Translational            0.889              2.981             41.725
 Rotational               0.889              2.981             31.431
 Vibrational            111.311             27.804             16.309
 Vibration     1          0.624              1.882              2.461
 Vibration     2          0.635              1.850              2.201
 Vibration     3          0.679              1.714              1.547
 Vibration     4          0.724              1.585              1.187
 Vibration     5          0.744              1.529              1.071
 Vibration     6          0.784              1.424              0.888
 Vibration     7          0.809              1.361              0.795
 Vibration     8          0.850              1.262              0.671
 Vibration     9          0.861              1.236              0.643
 Vibration    10          0.878              1.200              0.604
 Vibration    11          0.955              1.037              0.454

 Normal termination of Gaussian 16 at Sat Mar  4 11:39:45 2023.
