 Gaussian 16, Revision C.01,
 Gaussian 16:  ES64L-G16RevC.01  3-Jul-2019

 ----------------------------------------------------------------------
 #p pop=(regular,nbo,savenbos) freq=noraman def2svp empiricaldispersion
 =gd3bj output=wfx pbe1pbe
 ----------------------------------------------------------------------

 -----------------------------------------
 ELUBEU_Complex_16_Ligand_0_OO_Cu_oriented
 -----------------------------------------
 Symbolic Z-matrix:
 Charge = -4 Multiplicity = 1

                         Standard orientation:
 ---------------------------------------------------------------------
 Center     Atomic      Atomic             Coordinates (Angstroms)
 Number     Number       Type             X           Y           Z
 ---------------------------------------------------------------------
      1          8           0       -2.647453   -0.741630    0.046142
      2          8           0       -0.255489   -1.090621   -1.308733
      3          8           0        0.296195   -1.085119    1.313649
      4          6           0       -1.904546    0.257920   -0.066414
      5          6           0       -0.473342    0.100747   -0.596748
      6          1           0       -0.259462    0.876648   -1.189589
      7          6           0        0.473113    0.124063    0.618882
      8          8           0        2.604766   -0.748248   -0.054043
      9          8           0        2.262060    1.440593   -0.267186
     10          6           0        1.898888    0.266541    0.070027
     11          8           0       -2.254899    1.441223    0.247982
     12          1           0        0.253344    0.898140    1.212621
 ---------------------------------------------------------------------

 SCF Done:  E(RPBE1PBE) =  -602.967690871     A.U. after   18 cycles

 The electronic state is 1-A.
 Alpha  occ. eigenvalues --  -18.46155 -18.45949 -18.45657 -18.45379 -18.33583
 Alpha  occ. eigenvalues --  -18.33488  -9.60485  -9.60187  -9.50601  -9.50547
 Alpha  occ. eigenvalues --   -0.34585  -0.34402  -0.24973  -0.24904  -0.17380
 Alpha  occ. eigenvalues --   -0.12543   0.02681   0.09658   0.19374   0.19741
 Alpha  occ. eigenvalues --    0.23448   0.24877   0.25584   0.26302   0.27872
 Alpha  occ. eigenvalues --    0.29499   0.31776   0.38975   0.39910   0.41735
 Alpha  occ. eigenvalues --    0.41922   0.42689   0.43942   0.44331   0.45508
 Alpha  occ. eigenvalues --    0.54074   0.54229   0.56168   0.56854
 Alpha virt. eigenvalues --    0.74674   0.76508   0.78413   0.78651   0.91147
 Alpha virt. eigenvalues --    0.91420   0.95449   0.99028   1.02116   1.07612
 Alpha virt. eigenvalues --    1.08634   1.13747   1.14245   1.22420   1.24400

 Mulliken charges:
               1
     1  O   -0.531434
     2  O   -0.829877
     3  O   -0.831237
     4  C   -0.022455
     5  C    0.316671
     6  H   -0.313248
     7  C    0.308645
     8  O   -0.512981
     9  O   -0.619609
    10  C   -0.031943
    11  O   -0.615668
    12  H   -0.316865
 Sum of Mulliken charges =  -4.00000

 Dipole moment (field-independent basis, Debye):
    X=             -0.0054    Y=              2.8907    Z=              0.0409  Tot=              2.8910
 Quadrupole moment (field-independent basis, Debye-Ang):
   XX=           -138.9349   YY=            -95.1188   ZZ=            -79.4905
   XY=             -0.0798   XZ=              2.4865   YZ=              0.0656

  Exact polarizability:      65.744       0.028      68.428       1.259       0.186      52.132
 Approx polarizability:      79.859      -0.019     118.694       2.032       0.273      74.267

 Summary of Natural Population Analysis:

                                       Natural Population
                Natural  -----------------------------------------------
    Atom  No    Charge         Core      Valence    Rydberg      Total
 -----------------------------------------------------------------------
      O    1   -0.87200      1.99973     6.86310    0.00917     8.87200
      O    2   -1.05545      1.99986     7.04657    0.00901     9.05545
      O    3   -1.05674      1.99986     7.04775    0.00912     9.05674
      C    4    0.80118      1.99939     3.11227    0.08716     5.19882
      C    5    0.02066      1.99885     3.93786    0.04264     5.97934
      H    6    0.05610      0.00000     0.92289    0.02100     0.94390
      C    7    0.01602      1.99888     3.94255    0.04256     5.98398
      O    8   -0.86021      1.99972     6.85093    0.00956     8.86021
      O    9   -0.95420      1.99976     6.94629    0.00816     8.95420
      C   10    0.80005      1.99940     3.11243    0.08812     5.19995
      O   11   -0.94996      1.99976     6.94205    0.00816     8.94996
      H   12    0.05455      0.00000     0.92450    0.02095     0.94545
 =======================================================================
   * Total *   -4.00000     19.99519    57.64919    0.35562    78.00000

 ******    5 imaginary frequencies (negative Signs) ******

                      1                      2                      3
                      A                      A                      A
 Frequencies --   -447.7414              -376.2665              -303.7658
 Red. masses --      1.4027                 1.5749                 2.1513
 Frc consts  --      0.1657                 0.1314                 0.1170
 IR Inten    --      1.5190                 6.4125                30.5430

                      4                      5                      6
                      A                      A                      A
 Frequencies --   -242.7570               -98.0312               120.4653
 Red. masses --      2.9037                15.5193                 9.6839
 Frc consts  --      0.1008                 0.0879                 0.0828
 IR Inten    --      0.7559                 1.1455                 0.2134

                      7                      8                      9
                      A                      A                      A
 Frequencies --    174.8042               221.0874               399.1210
 Red. masses --      7.8612                12.0988                 6.9862
 Frc consts  --      0.1415                 0.3484                 0.6557
 IR Inten    --      0.5663                 0.4887                14.1478

                     10                     11                     12
                      A                      A                      A
 Frequencies --    416.5135               443.5928               528.7714
 Red. masses --      7.9080                 5.0481                 3.5083
 Frc consts  --      0.8083                 0.5853                 0.5779
 IR Inten    --      0.3429                 0.1517                44.8620

                     13                     14                     15
                      A                      A                      A
 Frequencies --    586.9262               598.8467               725.6298
 Red. masses --      3.3197                 4.9758                 2.4992
 Frc consts  --      0.6738                 1.0513                 0.7753
 IR Inten    --     43.6276                13.3470                70.4823

                     16                     17                     18
                      A                      A                      A
 Frequencies --    745.3418               766.4151               817.8983
 Red. masses --      3.4572                 6.6736                13.0035
 Frc consts  --      1.1316                 2.3096                 5.1252
 IR Inten    --     21.0530                55.6590                 0.0606

                     19                     20                     21
                      A                      A                      A
 Frequencies --    892.2233               962.4307              1021.1524
 Red. masses --      7.8172                11.4688                 8.1720
 Frc consts  --      3.6665                 6.2590                 5.0206
 IR Inten    --     12.8366                 0.3303                 0.0018

                     22                     23                     24
                      A                      A                      A
 Frequencies --   1046.6906              1072.7698              1091.3839
 Red. masses --      6.9607                 7.8670                 7.3421
 Frc consts  --      4.4930                 5.3343                 5.1526
 IR Inten    --     30.7176                67.5249                75.5100

                     25                     26                     27
                      A                      A                      A
 Frequencies --   1468.9772              1490.3722              1727.0725
 Red. masses --     13.1349                13.0107                12.5753
 Frc consts  --     16.6997                17.0271                22.0999
 IR Inten    --    546.3957                66.7450               397.8811

                     28                     29                     30
                      A                      A                      A
 Frequencies --   1759.9751              3982.8764              4004.9279
 Red. masses --     12.6818                 1.0835                 1.0843
 Frc consts  --     23.1444                10.1264                10.2470
 IR Inten    --    493.2854               328.9374               578.7953

 - Thermochemistry -
 -------------------
 Temperature   298.150 Kelvin.  Pressure   1.00000 Atm.
 Atom     1 has atomic number  8 and mass  15.99491

 Molecular mass:   145.98514 amu.
 Principal axes and moments of inertia in atomic units:
                           1         2         3
     Eigenvalues --   695.091891955.684722157.30892
           X            1.00000  -0.00000   0.00148
           Y            0.00000   1.00000   0.00082
           Z           -0.00148  -0.00082   1.00000
 This molecule is an asymmetric top.
 Rotational symmetry number  1.
 Warning -- assumption of classical behavior for rotation
           may cause significant error
 Rotational temperatures (Kelvin)      0.12461     0.04429     0.04015
 Rotational constants (GHZ):           2.59641     0.92282     0.83657
    5 imaginary frequencies ignored.
 Zero-point vibrational energy     161892.2 (Joules/Mol)
                                   38.69317 (Kcal/Mol)
 Warning -- explicit consideration of   9 degrees of freedom as
           vibrations may cause significant error
 Vibrational temperatures:    173.32   251.50   318.10   574.25   599.27
          (Kelvin)            638.23   760.78   844.46   861.61  1044.02
                             1072.38  1102.70  1176.77  1283.71  1384.72
                             1469.21  1505.95  1543.48  1570.26  2113.53
                             2144.31  2484.87  2532.21  5730.47  5762.20

 Zero-point correction=                           0.061661 (Hartree/Particle)
 Thermal correction to Energy=                    0.068316
 Thermal correction to Enthalpy=                  0.069260
 Thermal correction to Gibbs Free Energy=         0.029595
 Sum of electronic and zero-point Energies=           -602.906029
 Sum of electronic and thermal Energies=              -602.899375
 Sum of electronic and thermal Enthalpies=            -602.898431
 Sum of electronic and thermal Free Energies=         -602.938096

                     E (Thermal)             CV                S
                      KCal/Mol        Cal/Mol-Kelvin    Cal/Mol-Kelvin
 Total                   42.869             24.423             83.482
 Electronic               0.000              0.000              0.000
 Translational            0.889              2.981             40.846
 Rotational               0.889              2.981             29.463
 Vibrational             41.091             18.461             13.174
 Vibration     1          0.609              1.932              3.093
 Vibration     2          0.627              1.873              2.383
 Vibration     3          0.648              1.809              1.950
 Vibration     4          0.765              1.472              0.966
 Vibration     5          0.780              1.434              0.904
 Vibration     6          0.803              1.375              0.815
 Vibration     7          0.884              1.186              0.590
 Vibration     8          0.944              1.060              0.473
 Vibration     9          0.957              1.034              0.452

 Normal termination of Gaussian 16 at Mon Mar  6 10:26:05 2023.
