 Gaussian 16, Revision C.01,
 Gaussian 16:  ES64L-G16RevC.01  3-Jul-2019

 ----------------------------------------------------------------------
 #p pop=(regular,nbo,savenbos) freq=noraman def2svp empiricaldispersion
 =gd3bj output=wfx pbe1pbe
 ----------------------------------------------------------------------

 ----------------------------------------
 EPIDEN_Complex_0_Ligand_0_NN_Cu_oriented
 ----------------------------------------
 Symbolic Z-matrix:
 Charge =  0 Multiplicity = 1

                         Standard orientation:
 ---------------------------------------------------------------------
 Center     Atomic      Atomic             Coordinates (Angstroms)
 Number     Number       Type             X           Y           Z
 ---------------------------------------------------------------------
      1          7           0        0.014289   -0.789448    0.919376
      2          1           0       -0.763270   -0.954031    1.341665
      3          6           0       -4.949181    0.275749   -0.300667
      4          8           0       -5.749255   -0.583434   -0.432813
      5          8           0       -5.082539    1.221716    0.609529
      6          6           0       -3.689692    0.382340   -1.089771
      7          1           0       -3.846715    0.067060   -1.994122
      8          1           0       -3.413617    1.310162   -1.137030
      9          6           0       -2.604925   -0.431310   -0.458302
     10          1           0       -2.475366   -0.120560    0.451244
     11          1           0       -2.898088   -1.355211   -0.412467
     12          6           0       -1.263346   -0.382840   -1.184468
     13          1           0       -0.977271    0.541945   -1.247227
     14          1           0       -1.387659   -0.714000   -2.087863
     15          6           0       -0.157250   -1.191946   -0.514276
     16          1           0       -0.435657   -2.131115   -0.523105
     17          6           0        1.196418   -1.107623   -1.225367
     18          1           0        1.076765   -1.421349   -2.145972
     19          6           0        2.178144   -2.042986   -0.530403
     20          1           0        3.026636   -2.048043   -0.999823
     21          1           0        1.828347   -2.947926   -0.516717
     22          6           0        2.365467   -1.531245    0.886382
     23          1           0        2.994412   -2.131118    1.340362
     24          6           0        1.035195   -1.619964    1.613052
     25          1           0        1.142042   -1.309283    2.525319
     26          1           0        0.739338   -2.543514    1.640168
     27          6           0        2.969791   -0.123138    0.896301
     28          1           0        2.943635    0.197304    1.822481
     29          6           0        4.433846   -0.158111    0.471081
     30          1           0        4.497851   -0.578439   -0.400530
     31          7           0        2.134252    0.826765    0.070574
     32          6           0        1.810381    0.293633   -1.276094
     33          1           0        1.188162    0.896704   -1.713516
     34          1           0        2.620247    0.265451   -1.808943
     35          6           0       -6.248869    1.161901    1.448922
     36          1           0       -6.201365    1.854866    2.111599
     37          1           0       -7.035643    1.285715    0.912633
     38          6           0        5.071154    1.214584    0.404249
     39          1           0        5.973131    1.141395    0.053740
     40          1           0        5.120840    1.597161    1.293736
     41          6           0        4.246426    2.110060   -0.492294
     42          1           0        4.272162    1.773035   -1.401700
     43          1           0        4.620828    3.004512   -0.491227
     44          6           0        2.815746    2.159527   -0.013221
     45          1           0        2.308684    2.728525   -0.613129
     46          1           0        4.930437   -0.705898    1.099560
     47          1           0       -6.288360    0.306238    1.882167
     48          1           0        2.798218    2.571167    0.864570
 ---------------------------------------------------------------------

 SCF Done:  E(RPBE1PBE) =  -884.513406998     A.U. after   14 cycles

 The electronic state is 1-A.
 Alpha  occ. eigenvalues --  -19.24572 -19.18035 -14.35421 -14.33916 -10.34028
 Alpha  occ. eigenvalues --  -10.24951 -10.23306 -10.22891 -10.21385 -10.21306
 Alpha  occ. eigenvalues --  -10.21138 -10.20931 -10.20882 -10.20603 -10.20199
 Alpha  occ. eigenvalues --  -10.19436 -10.19212 -10.18884 -10.18627 -10.18483
 Alpha  occ. eigenvalues --   -1.12887  -1.03011  -0.93730  -0.90997  -0.84490
 Alpha  occ. eigenvalues --   -0.83110  -0.82003  -0.80153  -0.77870  -0.76190
 Alpha  occ. eigenvalues --   -0.73913  -0.70422  -0.67628  -0.65215  -0.64830
 Alpha  occ. eigenvalues --   -0.63555  -0.61124  -0.59557  -0.59347  -0.54867
 Alpha  occ. eigenvalues --   -0.52967  -0.52203  -0.51748  -0.51316  -0.50250
 Alpha  occ. eigenvalues --   -0.49617  -0.48784  -0.48196  -0.46652  -0.45941
 Alpha  occ. eigenvalues --   -0.45816  -0.45089  -0.44535  -0.44194  -0.43060
 Alpha  occ. eigenvalues --   -0.42511  -0.41217  -0.40523  -0.40216  -0.39417
 Alpha  occ. eigenvalues --   -0.38149  -0.37885  -0.37437  -0.36573  -0.36055
 Alpha  occ. eigenvalues --   -0.35895  -0.35586  -0.35002  -0.33508  -0.32795
 Alpha  occ. eigenvalues --   -0.31405  -0.31175  -0.30624  -0.30124  -0.27577
 Alpha  occ. eigenvalues --   -0.22828  -0.18212
 Alpha virt. eigenvalues --    0.03766   0.07127   0.08919   0.09274   0.09868
 Alpha virt. eigenvalues --    0.10692   0.10958   0.11590   0.12049   0.12759
 Alpha virt. eigenvalues --    0.13500   0.14120   0.14637   0.14782   0.15142

 Mulliken charges:
               1
     1  N   -0.266421
     2  H    0.061602
     3  C    0.112798
     4  O   -0.254526
     5  O   -0.353519
     6  C    0.235177
     7  H   -0.019615
     8  H   -0.023623
     9  C   -0.039630
    10  H   -0.008312
    11  H   -0.016439
    12  C    0.199671
    13  H   -0.028630
    14  H   -0.042165
    15  C    0.075353
    16  H   -0.058978
    17  C   -0.138794
    18  H   -0.041580
    19  C    0.242219
    20  H   -0.049866
    21  H   -0.052621
    22  C   -0.155393
    23  H   -0.039163
    24  C    0.359797
    25  H   -0.047308
    26  H   -0.062212
    27  C    0.065754
    28  H   -0.050786
    29  C    0.140597
    30  H   -0.045590
    31  N   -0.436721
    32  C    0.370481
    33  H   -0.048573
    34  H   -0.063095
    35  C    0.357730
    36  H   -0.011356
    37  H   -0.012424
    38  C    0.120711
    39  H   -0.031485
    40  H   -0.037870
    41  C    0.043086
    42  H   -0.034479
    43  H   -0.031550
    44  C    0.254315
    45  H   -0.041564
    46  H   -0.041236
    47  H   -0.012784
    48  H   -0.040980
 Sum of Mulliken charges =  -0.00000

 Dipole moment (field-independent basis, Debye):
    X=              1.4755    Y=              0.2034    Z=              0.5147  Tot=              1.5758
 Quadrupole moment (field-independent basis, Debye-Ang):
   XX=           -121.1085   YY=           -118.6523   ZZ=           -114.3527
   XY=             -9.3800   XZ=             -8.2702   YZ=             -1.7122

  Exact polarizability:     191.707       3.674     149.424       0.766      -0.458     141.653
 Approx polarizability:     219.657       4.168     211.292       1.637       3.003     205.766

 Summary of Natural Population Analysis:

                                       Natural Population
                Natural  -----------------------------------------------
    Atom  No    Charge         Core      Valence    Rydberg      Total
 -----------------------------------------------------------------------
      N    1   -0.67871      1.99937     5.66077    0.01856     7.67871
      H    2    0.32460      0.00000     0.66915    0.00626     0.67540
      C    3    0.86646      1.99936     3.07833    0.05585     5.13354
      O    4   -0.62380      1.99970     6.61251    0.01159     8.62380
      O    5   -0.57450      1.99963     6.56460    0.01027     8.57450
      C    6   -0.45604      1.99897     4.44276    0.01431     6.45604
      H    7    0.20525      0.00000     0.79074    0.00401     0.79475
      H    8    0.20266      0.00000     0.79291    0.00443     0.79734
      C    9   -0.34630      1.99905     4.33457    0.01268     6.34630
      H   10    0.18370      0.00000     0.81065    0.00565     0.81630
      H   11    0.18324      0.00000     0.81150    0.00525     0.81676
      C   12   -0.36597      1.99903     4.35102    0.01592     6.36597
      H   13    0.18861      0.00000     0.80642    0.00497     0.81139
      H   14    0.18600      0.00000     0.80999    0.00401     0.81400
      C   15    0.01186      1.99897     3.96861    0.02057     5.98814
      H   16    0.15749      0.00000     0.83641    0.00610     0.84251
      C   17   -0.21010      1.99901     4.19336    0.01773     6.21010
      H   18    0.19987      0.00000     0.79619    0.00395     0.80013
      C   19   -0.37003      1.99907     4.35323    0.01773     6.37003
      H   20    0.19093      0.00000     0.80569    0.00338     0.80907
      H   21    0.19130      0.00000     0.80455    0.00414     0.80870
      C   22   -0.21500      1.99901     4.19805    0.01793     6.21500
      H   23    0.20005      0.00000     0.79576    0.00419     0.79995
      C   24   -0.14093      1.99902     4.12431    0.01760     6.14093
      H   25    0.18180      0.00000     0.81516    0.00303     0.81820
      H   26    0.15596      0.00000     0.83955    0.00449     0.84404
      C   27    0.00504      1.99898     3.97346    0.02252     5.99496
      H   28    0.18219      0.00000     0.81171    0.00610     0.81781
      C   29   -0.38821      1.99905     4.37479    0.01437     6.38821
      H   30    0.17927      0.00000     0.81692    0.00381     0.82073
      N   31   -0.55991      1.99943     5.54614    0.01435     7.55991
      C   32   -0.15486      1.99902     4.13529    0.02055     6.15486
      H   33    0.18376      0.00000     0.81298    0.00326     0.81624
      H   34    0.15839      0.00000     0.83660    0.00501     0.84161
      C   35   -0.14298      1.99889     4.13231    0.01178     6.14298
      H   36    0.16687      0.00000     0.83124    0.00190     0.83313
      H   37    0.16330      0.00000     0.83353    0.00317     0.83670
      C   38   -0.35446      1.99910     4.34215    0.01320     6.35446
      H   39    0.18725      0.00000     0.80932    0.00343     0.81275
      H   40    0.17607      0.00000     0.81955    0.00438     0.82393
      C   41   -0.38166      1.99910     4.37111    0.01146     6.38166
      H   42    0.17669      0.00000     0.81965    0.00365     0.82331
      H   43    0.18939      0.00000     0.80668    0.00393     0.81061
      C   44   -0.14533      1.99904     4.12827    0.01801     6.14533
      H   45    0.17985      0.00000     0.81692    0.00323     0.82015
      H   46    0.19171      0.00000     0.80429    0.00400     0.80829
      H   47    0.16408      0.00000     0.83247    0.00345     0.83592
      H   48    0.17515      0.00000     0.82118    0.00367     0.82485
 =======================================================================
   * Total *    0.00000     39.98279   113.54336    0.47384   154.00000

 ******   36 imaginary frequencies (negative Signs) ******

                      1                      2                      3
                      A                      A                      A
 Frequencies --  -1411.7393             -1320.5256             -1115.1155
 Red. masses --      1.0095                 1.0963                 1.0443
 Frc consts  --      1.1854                 1.1264                 0.7651
 IR Inten    --      0.0127                86.6547                 3.9220

                      4                      5                      6
                      A                      A                      A
 Frequencies --  -1102.1071             -1088.0815             -1069.0588
 Red. masses --      1.0304                 1.0268                 1.0247
 Frc consts  --      0.7374                 0.7162                 0.6900
 IR Inten    --      4.0752                 1.5190                 1.4297

                      7                      8                      9
                      A                      A                      A
 Frequencies --  -1063.6598             -1059.5889             -1049.9218
 Red. masses --      1.0255                 1.0336                 1.0300
 Frc consts  --      0.6836                 0.6837                 0.6690
 IR Inten    --      4.4392                 0.3651                 5.0611

                     10                     11                     12
                      A                      A                      A
 Frequencies --  -1043.0433             -1040.6185             -1034.4582
 Red. masses --      1.0301                 1.0288                 1.0448
 Frc consts  --      0.6603                 0.6564                 0.6588
 IR Inten    --      4.8578                 0.5208                 0.3605

                     13                     14                     15
                      A                      A                      A
 Frequencies --   -864.6355              -849.6492              -589.3569
 Red. masses --      1.0697                 1.1302                 1.1946
 Frc consts  --      0.4712                 0.4807                 0.2445
 IR Inten    --      4.4027                 4.5108                 0.3799

                     16                     17                     18
                      A                      A                      A
 Frequencies --   -570.9734              -557.5437              -546.0336
 Red. masses --      1.3417                 1.2991                 1.3378
 Frc consts  --      0.2577                 0.2379                 0.2350
 IR Inten    --      4.9985                 9.1784                 4.2046

                     19                     20                     21
                      A                      A                      A
 Frequencies --   -544.1270              -522.8348              -514.0989
 Red. masses --      1.4133                 1.2954                 1.3017
 Frc consts  --      0.2465                 0.2086                 0.2027
 IR Inten    --      2.3979                 2.2537                 1.0785

                     22                     23                     24
                      A                      A                      A
 Frequencies --   -500.2705              -485.9518              -464.3959
 Red. masses --      1.3682                 1.3874                 1.4495
 Frc consts  --      0.2018                 0.1930                 0.1842
 IR Inten    --      3.8838                 0.2977                 4.1912

                     25                     26                     27
                      A                      A                      A
 Frequencies --   -429.5233              -422.5026              -399.7928
 Red. masses --      1.4147                 1.3755                 1.9008
 Frc consts  --      0.1538                 0.1447                 0.1790
 IR Inten    --      1.5893                 3.0482                 1.6921

                     28                     29                     30
                      A                      A                      A
 Frequencies --   -397.1410              -378.8295              -364.7660
 Red. masses --      1.5149                 1.6738                 1.5002
 Frc consts  --      0.1408                 0.1415                 0.1176
 IR Inten    --      0.9756                 1.4170                 2.7645

                     31                     32                     33
                      A                      A                      A
 Frequencies --   -348.8689              -321.6800              -287.2542
 Red. masses --      1.2931                 1.6940                 1.3158
 Frc consts  --      0.0927                 0.1033                 0.0640
 IR Inten    --      3.0164                 2.7429                 3.2271

                     34                     35                     36
                      A                      A                      A
 Frequencies --   -235.6739              -172.2143               -86.0259
 Red. masses --      1.9768                 4.2225                 3.9650
 Frc consts  --      0.0647                 0.0738                 0.0173
 IR Inten    --      1.4147                 4.5477                 2.4491

                     37                     38                     39
                      A                      A                      A
 Frequencies --     52.5488               128.7485               203.2115
 Red. masses --      3.9994                 1.4437                 3.1969
 Frc consts  --      0.0065                 0.0141                 0.0778
 IR Inten    --      3.3950                 1.6687                 0.3552

                     40                     41                     42
                      A                      A                      A
 Frequencies --    268.1141               320.7494               347.3262
 Red. masses --      1.2232                 1.2237                 1.3404
 Frc consts  --      0.0518                 0.0742                 0.0953
 IR Inten    --      2.1255                 1.4346                 1.3710

                     43                     44                     45
                      A                      A                      A
 Frequencies --    388.3149               431.5661               462.6911
 Red. masses --      2.2452                 1.8515                 1.8134
 Frc consts  --      0.1995                 0.2032                 0.2287
 IR Inten    --      0.6355                 7.5455                 3.9486

                     46                     47                     48
                      A                      A                      A
 Frequencies --    477.1000               501.2833               535.5779
 Red. masses --      1.8770                 1.9146                 1.9920
 Frc consts  --      0.2517                 0.2835                 0.3367
 IR Inten    --      9.0746                 6.2983                 1.8074

                     49                     50                     51
                      A                      A                      A
 Frequencies --    559.3884               584.5593               597.6589
 Red. masses --      2.5215                 1.8405                 2.1634
 Frc consts  --      0.4649                 0.3705                 0.4553
 IR Inten    --      0.1476                 0.6782                 1.2242

                     52                     53                     54
                      A                      A                      A
 Frequencies --    599.4876               618.9184               643.4656
 Red. masses --      2.6686                 1.8638                 1.6811
 Frc consts  --      0.5651                 0.4206                 0.4101
 IR Inten    --      2.9212                 6.5472                29.6376

                     55                     56                     57
                      A                      A                      A
 Frequencies --    663.9406               666.4737               680.0513
 Red. masses --      1.7700                 2.5807                 1.8759
 Frc consts  --      0.4597                 0.6754                 0.5111
 IR Inten    --      1.2392                 3.4225                 9.0662

                     58                     59                     60
                      A                      A                      A
 Frequencies --    700.4041               725.6128               737.2607
 Red. masses --      2.5298                 1.8925                 2.4430
 Frc consts  --      0.7312                 0.5871                 0.7824
 IR Inten    --      0.7536                 0.9447                 2.7524

                     61                     62                     63
                      A                      A                      A
 Frequencies --    764.4943               780.7704               807.3933
 Red. masses --      1.9390                 2.1588                 2.6424
 Frc consts  --      0.6677                 0.7754                 1.0149
 IR Inten    --      0.4140                 3.3145                11.0466

                     64                     65                     66
                      A                      A                      A
 Frequencies --    819.5891               821.3995               837.5322
 Red. masses --      2.6835                 3.7282                 3.7034
 Frc consts  --      1.0620                 1.4820                 1.5306
 IR Inten    --      6.4060                 9.9229                 4.8355

                     67                     68                     69
                      A                      A                      A
 Frequencies --    840.5343               855.1355               875.7289
 Red. masses --      3.0586                 2.6607                 1.7075
 Frc consts  --      1.2732                 1.1464                 0.7715
 IR Inten    --      2.5451                 7.0076                 2.5052

                     70                     71                     72
                      A                      A                      A
 Frequencies --    880.9147               899.2974               913.1559
 Red. masses --      2.8340                 2.9389                 3.3712
 Frc consts  --      1.2957                 1.4003                 1.6563
 IR Inten    --      2.8245                 6.2196                 8.0285

                     73                     74                     75
                      A                      A                      A
 Frequencies --    924.9544               928.8307               951.1301
 Red. masses --      2.1700                 2.4733                 1.5360
 Frc consts  --      1.0938                 1.2572                 0.8187
 IR Inten    --      2.7820                 3.5414                 3.1868

                     76                     77                     78
                      A                      A                      A
 Frequencies --    961.9329               966.1506               967.6161
 Red. masses --      2.2559                 1.4039                 1.2755
 Frc consts  --      1.2299                 0.7721                 0.7036
 IR Inten    --      3.3636                 3.3857                 0.8255

                     79                     80                     81
                      A                      A                      A
 Frequencies --    971.2875               973.5118               980.3553
 Red. masses --      1.5103                 1.7159                 2.0062
 Frc consts  --      0.8395                 0.9581                 1.1360
 IR Inten    --     11.5720                12.5645                 4.4373

                     82                     83                     84
                      A                      A                      A
 Frequencies --    986.7600               993.6207              1000.1618
 Red. masses --      1.4216                 1.5597                 1.3500
 Frc consts  --      0.8155                 0.9073                 0.7956
 IR Inten    --      8.7297                 9.7380                 2.7131

                     85                     86                     87
                      A                      A                      A
 Frequencies --   1000.7140              1009.1773              1031.3341
 Red. masses --      1.3650                 1.3427                 1.7100
 Frc consts  --      0.8054                 0.8057                 1.0717
 IR Inten    --      5.6615                28.2527                 7.5413

                     88                     89                     90
                      A                      A                      A
 Frequencies --   1039.1830              1040.9515              1055.9548
 Red. masses --      1.0921                 1.0994                 2.5749
 Frc consts  --      0.6949                 0.7019                 1.6916
 IR Inten    --     26.6877                 6.6743                 1.4012

                     91                     92                     93
                      A                      A                      A
 Frequencies --   1071.2932              1091.1616              1095.6563
 Red. masses --      2.4546                 3.4900                 2.2009
 Frc consts  --      1.6597                 2.4483                 1.5567
 IR Inten    --     11.3937                 4.8798                15.4620

                     94                     95                     96
                      A                      A                      A
 Frequencies --   1103.4859              1114.9408              1118.4421
 Red. masses --      2.7669                 3.4295                 3.3386
 Frc consts  --      1.9851                 2.5118                 2.4606
 IR Inten    --      7.5106                19.3477                 4.3139

                     97                     98                     99
                      A                      A                      A
 Frequencies --   1143.0558              1156.4550              1161.1582
 Red. masses --      3.1450                 4.0760                 3.9785
 Frc consts  --      2.4210                 3.2118                 3.1605
 IR Inten    --     18.8130                 0.9837                15.9484

                    100                    101                    102
                      A                      A                      A
 Frequencies --   1179.6836              1190.5264              1225.1381
 Red. masses --      4.6091                 4.9002                 5.8878
 Frc consts  --      3.7792                 4.0921                 5.2068
 IR Inten    --     12.4319                 7.4378                 5.7772

                    103                    104                    105
                      A                      A                      A
 Frequencies --   1228.1787              1238.0026              1250.0574
 Red. masses --      5.4696                 4.4974                 6.3004
 Frc consts  --      4.8611                 4.0612                 5.8006
 IR Inten    --      5.1308                16.8345                 8.5546

                    106                    107                    108
                      A                      A                      A
 Frequencies --   1267.5718              1277.4574              1281.4325
 Red. masses --      6.1586                 6.4644                 7.4679
 Frc consts  --      5.8302                 6.2154                 7.2250
 IR Inten    --      1.3091                 3.6444                 2.6793

                    109                    110                    111
                      A                      A                      A
 Frequencies --   1430.4540              2028.0178              4333.7333
 Red. masses --      9.5624                12.5338                 1.0865
 Frc consts  --     11.5283                30.3723                12.0226
 IR Inten    --    450.1685               295.8625                42.8114

                    112                    113                    114
                      A                      A                      A
 Frequencies --   4346.6954              4351.1042              4358.7238
 Red. masses --      1.0868                 1.0876                 1.0869
 Frc consts  --     12.0986                12.1311                12.1668
 IR Inten    --      7.8128                24.2444                13.5030

                    115                    116                    117
                      A                      A                      A
 Frequencies --   4406.4326              4408.0106              4413.8611
 Red. masses --      1.0594                 1.0598                 1.0598
 Frc consts  --     12.1199                12.1322                12.1653
 IR Inten    --     25.3252                39.1329                 3.3221

                    118                    119                    120
                      A                      A                      A
 Frequencies --   4416.2481              4417.9993              4418.9863
 Red. masses --      1.0597                 1.0599                 1.0614
 Frc consts  --     12.1773                12.1890                12.2115
 IR Inten    --     23.8462                26.9224                 2.6038

                    121                    122                    123
                      A                      A                      A
 Frequencies --   4420.5808              4422.9196              4424.7548
 Red. masses --      1.0607                 1.0601                 1.0611
 Frc consts  --     12.2124                12.2184                12.2400
 IR Inten    --     26.5068                15.7506                22.2764

                    124                    125                    126
                      A                      A                      A
 Frequencies --   4428.9012              4480.6731              4522.8047
 Red. masses --      1.0603                 1.0312                 1.1092
 Frc consts  --     12.2537                12.1976                13.3679
 IR Inten    --      5.4114                14.2633                16.5239

                    127                    128                    129
                      A                      A                      A
 Frequencies --   4531.9256              4532.9535              4533.6296
 Red. masses --      1.1093                 1.1088                 1.1078
 Frc consts  --     13.4236                13.4237                13.4154
 IR Inten    --     11.5544                11.1858                 0.0209

                    130                    131                    132
                      A                      A                      A
 Frequencies --   4536.3500              4538.3062              4542.1603
 Red. masses --      1.1092                 1.1085                 1.1086
 Frc consts  --     13.4485                13.4515                13.4759
 IR Inten    --      2.5232                14.6706                 7.0963

                    133                    134                    135
                      A                      A                      A
 Frequencies --   4544.5439              4545.7898              4553.2980
 Red. masses --      1.1078                 1.1087                 1.1083
 Frc consts  --     13.4804                13.4986                13.5377
 IR Inten    --      7.2018                21.8388                 4.2669

                    136                    137                    138
                      A                      A                      A
 Frequencies --   4687.0675              4691.6419              5166.2867
 Red. masses --      1.1079                 1.1084                 1.0754
 Frc consts  --     14.3407                14.3743                16.9114
 IR Inten    --      1.5562                 0.6697                 3.6260

 - Thermochemistry -
 -------------------
 Temperature   298.150 Kelvin.  Pressure   1.00000 Atm.
 Atom     1 has atomic number  7 and mass  14.00307

 Molecular mass:   280.21508 amu.
 Principal axes and moments of inertia in atomic units:
                           1         2         3
     Eigenvalues --  2334.67479********************
           X            0.99999   0.00074  -0.00379
           Y           -0.00078   0.99994  -0.01120
           Z            0.00379   0.01120   0.99993
 This molecule is an asymmetric top.
 Rotational symmetry number  1.
 Warning -- assumption of classical behavior for rotation
           may cause significant error
 Rotational temperatures (Kelvin)      0.03710     0.00638     0.00610
 Rotational constants (GHZ):           0.77302     0.13297     0.12704
   36 imaginary frequencies ignored.
 Zero-point vibrational energy    1138860.3 (Joules/Mol)
                                  272.19415 (Kcal/Mol)
 Warning -- explicit consideration of  17 degrees of freedom as
           vibrations may cause significant error
 Vibrational temperatures:     75.61   185.24   292.38   385.76   461.49
          (Kelvin)            499.72   558.70   620.93   665.71   686.44
                              721.23   770.58   804.84   841.05   859.90
                              862.53   890.49   925.80   955.26   958.91
                              978.44  1007.73  1043.99  1060.75  1099.94
                             1123.35  1161.66  1179.21  1181.81  1205.02
                             1209.34  1230.35  1259.98  1267.44  1293.89
                             1313.83  1330.80  1336.38  1368.46  1384.01
                             1390.08  1392.18  1397.47  1400.67  1410.51
                             1419.73  1429.60  1439.01  1439.80  1451.98
                             1483.86  1495.15  1497.70  1519.28  1541.35
                             1569.94  1576.41  1587.67  1604.15  1609.19
                             1644.60  1663.88  1670.65  1697.30  1712.90
                             1762.70  1767.08  1781.21  1798.55  1823.75
                             1837.98  1843.70  2058.10  2917.87  6235.28
                             6253.93  6260.27  6271.23  6339.87  6342.14
                             6350.56  6354.00  6356.52  6357.94  6360.23
                             6363.59  6366.24  6372.20  6446.69  6507.31
                             6520.43  6521.91  6522.88  6526.80  6529.61
                             6535.16  6538.59  6540.38  6551.18  6743.64
                             6750.23  7433.13

 Zero-point correction=                           0.433769 (Hartree/Particle)
 Thermal correction to Energy=                    0.444925
 Thermal correction to Enthalpy=                  0.445869
 Thermal correction to Gibbs Free Energy=         0.395942
 Sum of electronic and zero-point Energies=           -884.079638
 Sum of electronic and thermal Energies=              -884.068482
 Sum of electronic and thermal Enthalpies=            -884.067538
 Sum of electronic and thermal Free Energies=         -884.117465

                     E (Thermal)             CV                S
                      KCal/Mol        Cal/Mol-Kelvin    Cal/Mol-Kelvin
 Total                  279.194             54.072            105.079
 Electronic               0.000              0.000              0.000
 Translational            0.889              2.981             42.789
 Rotational               0.889              2.981             34.464
 Vibrational            277.417             48.110             27.826
 Vibration     1          0.596              1.977              4.719
 Vibration     2          0.611              1.924              2.965
 Vibration     3          0.639              1.835              2.104
 Vibration     4          0.673              1.732              1.608
 Vibration     5          0.706              1.634              1.306
 Vibration     6          0.725              1.581              1.178
 Vibration     7          0.756              1.495              1.007
 Vibration     8          0.793              1.401              0.854
 Vibration     9          0.820              1.333              0.758
 Vibration    10          0.834              1.301              0.718
 Vibration    11          0.857              1.247              0.655
 Vibration    12          0.891              1.171              0.575
 Vibration    13          0.915              1.119              0.525
 Vibration    14          0.942              1.065              0.477
 Vibration    15          0.956              1.037              0.454
 Vibration    16          0.958              1.033              0.451
 Vibration    17          0.979              0.992              0.418

 Normal termination of Gaussian 16 at Sat Mar  4 13:19:21 2023.
