 Gaussian 16, Revision C.01,
 Gaussian 16:  ES64L-G16RevC.01  3-Jul-2019

 ----------------------------------------------------------------------
 #p pop=(regular,nbo,savenbos) freq=noraman def2svp empiricaldispersion
 =gd3bj output=wfx pbe1pbe
 ----------------------------------------------------------------------

 ----------------------------------------
 EQUCUQ_Complex_2_Ligand_1_NN_Cu_oriented
 ----------------------------------------
 Symbolic Z-matrix:
 Charge = -1 Multiplicity = 1

                         Standard orientation:
 ---------------------------------------------------------------------
 Center     Atomic      Atomic             Coordinates (Angstroms)
 Number     Number       Type             X           Y           Z
 ---------------------------------------------------------------------
      1         16           0       -1.698883   -1.589697    0.035645
      2          8           0       -2.136174   -2.419913   -1.045158
      3          7           0        1.008100    1.006627   -0.164296
      4          7           0        2.561453   -0.886105   -0.166580
      5          7           0        3.878681   -0.986734   -0.037597
      6          7           0       -0.148294   -1.093022   -0.191469
      7          6           0        2.239165    0.430341   -0.116398
      8          6           0       -0.066023    0.260382   -0.149878
      9          6           0       -2.994859    2.670204    0.051699
     10          1           0       -3.203945    3.575275    0.092512
     11          6           0       -4.016927    1.735777    0.055163
     12          1           0       -4.900862    2.023972    0.078305
     13          6           0       -3.743333    0.381146    0.024964
     14          1           0       -4.422929   -0.253219    0.045690
     15          6           0       -1.385304    0.929894   -0.074362
     16          6           0       -1.667414    2.282001   -0.011130
     17          1           0       -0.983960    2.914107   -0.011312
     18          6           0       -2.420591    0.015921   -0.035272
     19          7           0        4.290519    0.240992    0.070784
     20          7           0        3.344964    1.164459    0.027197
     21          6           0        5.714295    0.561058    0.169340
     22          1           0        6.225176   -0.251873    0.183584
     23          1           0        5.876197    1.055086    0.976497
     24          1           0        5.977752    1.089844   -0.587684
     25          8           0       -1.849740   -2.135323    1.345292
 ---------------------------------------------------------------------

 SCF Done:  E(RPBE1PBE) =  -1222.36269272     A.U. after   15 cycles

 The electronic state is 1-A.
 Alpha  occ. eigenvalues --  -89.05982 -19.03398 -19.03299 -14.38877 -14.32367
 Alpha  occ. eigenvalues --  -14.28469 -14.26190 -14.21826 -14.21090 -10.16851
 Alpha  occ. eigenvalues --  -10.16339 -10.15810 -10.12905 -10.12724 -10.12453
 Alpha  occ. eigenvalues --  -10.12281 -10.12135 -10.11724  -8.03076  -5.97215
 Alpha  occ. eigenvalues --   -5.97197  -5.97116  -1.04625  -0.99256  -0.86470
 Alpha  occ. eigenvalues --   -0.84056  -0.82688  -0.80108  -0.77414  -0.74007
 Alpha  occ. eigenvalues --   -0.68339  -0.67202  -0.66929  -0.57673  -0.55184
 Alpha  occ. eigenvalues --   -0.53771  -0.51348  -0.49372  -0.48118  -0.44029
 Alpha  occ. eigenvalues --   -0.43177  -0.41357  -0.39867  -0.38109  -0.37388
 Alpha  occ. eigenvalues --   -0.37159  -0.35471  -0.34129  -0.33508  -0.32720
 Alpha  occ. eigenvalues --   -0.29546  -0.29014  -0.27252  -0.26537  -0.25954
 Alpha  occ. eigenvalues --   -0.21182  -0.20066  -0.19701  -0.19493  -0.18966
 Alpha  occ. eigenvalues --   -0.17837  -0.17320  -0.15970  -0.14863  -0.13630
 Alpha  occ. eigenvalues --   -0.13414  -0.11696  -0.07563
 Alpha virt. eigenvalues --    0.07745   0.09222   0.12019   0.16874   0.17951
 Alpha virt. eigenvalues --    0.19509   0.22964   0.23743   0.23779   0.24253
 Alpha virt. eigenvalues --    0.24620   0.25381   0.27569   0.27981   0.28794

 Mulliken charges:
               1
     1  S    0.892504
     2  O   -0.507059
     3  N   -0.248841
     4  N   -0.237261
     5  N   -0.046868
     6  N   -0.428709
     7  C    0.164260
     8  C    0.136028
     9  C    0.101869
    10  H   -0.113546
    11  C    0.091366
    12  H   -0.111414
    13  C    0.079496
    14  H   -0.122255
    15  C    0.014444
    16  C    0.070611
    17  H   -0.120397
    18  C   -0.047675
    19  N   -0.199942
    20  N   -0.186452
    21  C    0.366939
    22  H   -0.022471
    23  H   -0.014555
    24  H   -0.013830
    25  O   -0.496242
 Sum of Mulliken charges =  -1.00000

 Dipole moment (field-independent basis, Debye):
    X=              1.4150    Y=              6.5844    Z=              0.3472  Tot=              6.7437
 Quadrupole moment (field-independent basis, Debye-Ang):
   XX=           -107.8507   YY=           -133.3135   ZZ=           -116.4801
   XY=             -7.4994   XZ=              1.4001   YZ=             -0.0844

  Exact polarizability:     244.765       1.249     152.488       0.720       1.407      75.583
 Approx polarizability:     323.078      20.674     276.852       1.325       4.224     125.412

 Summary of Natural Population Analysis:

                                       Natural Population
                Natural  -----------------------------------------------
    Atom  No    Charge         Core      Valence    Rydberg      Total
 -----------------------------------------------------------------------
      S    1    2.28776      9.99811     3.47685    0.23727    13.71224
      O    2   -0.95636      1.99976     6.94705    0.00955     8.95636
      N    3   -0.66664      1.99916     5.64918    0.01830     7.66664
      N    4   -0.33329      1.99938     5.31130    0.02261     7.33329
      N    5   -0.09421      1.99949     5.06275    0.03197     7.09421
      N    6   -0.85172      1.99929     5.83679    0.01564     7.85172
      C    7    0.53216      1.99928     3.42392    0.04464     5.46784
      C    8    0.45989      1.99908     3.50156    0.03947     5.54011
      C    9   -0.18009      1.99911     4.16656    0.01442     6.18009
      H   10    0.16151      0.00000     0.83539    0.00310     0.83849
      C   11   -0.17922      1.99911     4.16535    0.01476     6.17922
      H   12    0.16123      0.00000     0.83567    0.00310     0.83877
      C   13   -0.16187      1.99900     4.14505    0.01782     6.16187
      H   14    0.17697      0.00000     0.81921    0.00382     0.82303
      C   15   -0.06968      1.99882     4.05123    0.01962     6.06968
      C   16   -0.13845      1.99901     4.12304    0.01640     6.13845
      H   17    0.18490      0.00000     0.81096    0.00414     0.81510
      C   18   -0.27201      1.99876     4.24615    0.02710     6.27201
      N   19   -0.00223      1.99927     4.97728    0.02567     7.00223
      N   20   -0.36160      1.99934     5.34049    0.02178     7.36160
      C   21   -0.29245      1.99909     4.28244    0.01092     6.29245
      H   22    0.18919      0.00000     0.80775    0.00306     0.81081
      H   23    0.18105      0.00000     0.81593    0.00303     0.81895
      H   24    0.18075      0.00000     0.81617    0.00308     0.81925
      O   25   -0.95557      1.99976     6.94609    0.00973     8.95557
 =======================================================================
   * Total *   -1.00000     43.98482    91.39418    0.62100   136.00000

 ******   13 imaginary frequencies (negative Signs) ******

                      1                      2                      3
                      A                      A                      A
 Frequencies --  -1455.3500             -1408.4548             -1347.5646
 Red. masses --      1.0861                 1.0118                 1.0520
 Frc consts  --      1.3553                 1.1825                 1.1255
 IR Inten    --     55.9522                 0.0051                 0.2691

                      4                      5                      6
                      A                      A                      A
 Frequencies --  -1279.3054             -1192.6514              -959.6989
 Red. masses --      1.0265                 1.0362                 1.0722
 Frc consts  --      0.9898                 0.8684                 0.5818
 IR Inten    --      0.6917                 0.1851                 3.9281

                      7                      8                      9
                      A                      A                      A
 Frequencies --   -931.9008              -926.0254              -900.4329
 Red. masses --      1.0612                 1.1128                 1.0922
 Frc consts  --      0.5430                 0.5623                 0.5217
 IR Inten    --      1.9525                 5.3341                 3.3130

                     10                     11                     12
                      A                      A                      A
 Frequencies --   -807.8907              -759.9434              -110.0991
 Red. masses --      1.0717                 1.0863                12.4550
 Frc consts  --      0.4121                 0.3696                 0.0890
 IR Inten    --     19.2824                 4.6581                 0.0804

                     13                     14                     15
                      A                      A                      A
 Frequencies --    -95.4508                28.0013               130.4105
 Red. masses --     14.6129                13.4296                11.4984
 Frc consts  --      0.0784                 0.0062                 0.1152
 IR Inten    --      0.0684                 1.8201                 3.1656

                     16                     17                     18
                      A                      A                      A
 Frequencies --    141.3871               222.9645               257.6279
 Red. masses --      9.9492                 9.7391                 9.0048
 Frc consts  --      0.1172                 0.2853                 0.3521
 IR Inten    --      2.8366                 0.9015                 6.1543

                     19                     20                     21
                      A                      A                      A
 Frequencies --    297.5688               319.5611               330.8068
 Red. masses --      9.8373                11.5811                11.9376
 Frc consts  --      0.5132                 0.6968                 0.7697
 IR Inten    --      7.9720                 1.5927                 3.8703

                     22                     23                     24
                      A                      A                      A
 Frequencies --    381.2074               458.4164               473.0560
 Red. masses --     11.0422                12.5545                13.9616
 Frc consts  --      0.9454                 1.5544                 1.8408
 IR Inten    --      1.3216                62.5032                 5.9332

                     25                     26                     27
                      A                      A                      A
 Frequencies --    535.0901               538.5603               573.4820
 Red. masses --     10.4541                10.2180                 7.6800
 Frc consts  --      1.7636                 1.7462                 1.4882
 IR Inten    --     41.5622                20.8520                 0.9145

                     28                     29                     30
                      A                      A                      A
 Frequencies --    589.2122               597.5022               616.5262
 Red. masses --      1.5193                10.7696                10.7374
 Frc consts  --      0.3108                 2.2653                 2.4047
 IR Inten    --     22.2092                11.2675                51.5876

                     31                     32                     33
                      A                      A                      A
 Frequencies --    633.2158               645.4958               693.6778
 Red. masses --      5.9205                 6.5060                 5.7607
 Frc consts  --      1.3987                 1.5972                 1.6332
 IR Inten    --      9.1946                 8.5263                43.3243

                     34                     35                     36
                      A                      A                      A
 Frequencies --    712.7363               734.4377               748.0827
 Red. masses --     10.5223                 7.0973                 5.3425
 Frc consts  --      3.1493                 2.2556                 1.7615
 IR Inten    --      5.5582                 4.9009                10.4427

                     37                     38                     39
                      A                      A                      A
 Frequencies --    796.1915               802.9503               811.1628
 Red. masses --      6.6807                10.2943                12.2865
 Frc consts  --      2.4952                 3.9104                 4.7632
 IR Inten    --     24.6129                 0.9116                19.3026

                     40                     41                     42
                      A                      A                      A
 Frequencies --    832.2891               874.8753               981.8741
 Red. masses --      7.0788                 7.0133                10.3747
 Frc consts  --      2.8891                 3.1628                 5.8930
 IR Inten    --     37.4703                24.2818               187.4069

                     43                     44                     45
                      A                      A                      A
 Frequencies --   1025.6109              1027.3637              1089.3217
 Red. masses --      1.1178                 1.1010                 9.1324
 Frc consts  --      0.6928                 0.6847                 6.3848
 IR Inten    --     25.7782                21.9534                42.1298

                     46                     47                     48
                      A                      A                      A
 Frequencies --   1110.6217              1135.8151              1185.5068
 Red. masses --      9.8648                10.2238                 9.4634
 Frc consts  --      7.1692                 7.7710                 7.8362
 IR Inten    --      5.2670                 5.2852                26.6552

                     49                     50                     51
                      A                      A                      A
 Frequencies --   1228.7327              1302.9499              1333.6153
 Red. masses --     12.5081                16.2456                11.6940
 Frc consts  --     11.1264                16.2496                12.2539
 IR Inten    --     11.2998               577.2433                 0.6496

                     52                     53                     54
                      A                      A                      A
 Frequencies --   1403.1593              1415.3674              1443.1687
 Red. masses --     10.9070                 9.9292                10.9002
 Frc consts  --     12.6523                11.7193                13.3758
 IR Inten    --      7.5337                27.7925                33.8162

                     55                     56                     57
                      A                      A                      A
 Frequencies --   1451.2143              1468.0193              1474.0033
 Red. masses --      9.0523                 9.8727                 9.7026
 Frc consts  --     11.2323                12.5357                12.4204
 IR Inten    --      4.3917                28.3695                36.4821

                     58                     59                     60
                      A                      A                      A
 Frequencies --   1485.9885              1586.3615              1677.5775
 Red. masses --     20.3083                12.2357                11.4249
 Frc consts  --     26.4214                18.1419                18.9438
 IR Inten    --    233.8412               282.0073               259.3970

                     61                     62                     63
                      A                      A                      A
 Frequencies --   1690.0630              1712.3556              4477.2503
 Red. masses --     12.0304                10.8176                 1.0322
 Frc consts  --     20.2459                18.6882                12.1907
 IR Inten    --    865.1097                82.4614                25.6125

                     64                     65                     66
                      A                      A                      A
 Frequencies --   4680.4567              4689.3724              5023.0154
 Red. masses --      1.1076                 1.1075                 1.0868
 Frc consts  --     14.2957                14.3494                16.1551
 IR Inten    --      1.1012                 1.2327                 1.4988

                     67                     68                     69
                      A                      A                      A
 Frequencies --   5029.2492              5038.0211              5043.0693
 Red. masses --      1.0886                 1.0902                 1.0921
 Frc consts  --     16.2228                16.3030                16.3639
 IR Inten    --      0.4290                 0.8738                 5.4587

 - Thermochemistry -
 -------------------
 Temperature   298.150 Kelvin.  Pressure   1.00000 Atm.
 Atom     1 has atomic number 16 and mass  31.97207

 Molecular mass:   263.03512 amu.
 Principal axes and moments of inertia in atomic units:
                           1         2         3
     Eigenvalues --  2155.379797909.724159707.07296
           X            0.99997  -0.00720   0.00117
           Y            0.00719   0.99997   0.00158
           Z           -0.00118  -0.00157   1.00000
 This molecule is an asymmetric top.
 Rotational symmetry number  1.
 Warning -- assumption of classical behavior for rotation
           may cause significant error
 Rotational temperatures (Kelvin)      0.04018     0.01095     0.00892
 Rotational constants (GHZ):           0.83732     0.22817     0.18592
   13 imaginary frequencies ignored.
 Zero-point vibrational energy     460476.3 (Joules/Mol)
                                  110.05647 (Kcal/Mol)
 Warning -- explicit consideration of  17 degrees of freedom as
           vibrations may cause significant error
 Vibrational temperatures:     40.29   187.63   203.42   320.80   370.67
          (Kelvin)            428.14   459.78   475.96   548.47   659.56
                              680.62   769.88   774.87   825.11   847.74
                              859.67   887.04   911.06   928.72   998.05
                             1025.47  1056.69  1076.32  1145.54  1155.27
                             1167.08  1197.48  1258.75  1412.70  1475.63
                             1478.15  1567.29  1597.94  1634.18  1705.68
                             1767.87  1874.65  1918.77  2018.83  2036.40
                             2076.40  2087.97  2112.15  2120.76  2138.01
                             2282.42  2413.66  2431.62  2463.70  6441.76
                             6734.13  6746.96  7227.00  7235.97  7248.59
                             7255.85

 Zero-point correction=                           0.175386 (Hartree/Particle)
 Thermal correction to Energy=                    0.185862
 Thermal correction to Enthalpy=                  0.186806
 Thermal correction to Gibbs Free Energy=         0.137179
 Sum of electronic and zero-point Energies=          -1222.187307
 Sum of electronic and thermal Energies=             -1222.176831
 Sum of electronic and thermal Enthalpies=           -1222.175886
 Sum of electronic and thermal Free Energies=        -1222.225514

                     E (Thermal)             CV                S
                      KCal/Mol        Cal/Mol-Kelvin    Cal/Mol-Kelvin
 Total                  116.630             42.447            104.451
 Electronic               0.000              0.000              0.000
 Translational            0.889              2.981             42.601
 Rotational               0.889              2.981             33.470
 Vibrational            114.853             36.485             28.380
 Vibration     1          0.593              1.984              5.966
 Vibration     2          0.612              1.923              2.940
 Vibration     3          0.615              1.912              2.785
 Vibration     4          0.649              1.806              1.935
 Vibration     5          0.667              1.750              1.678
 Vibration     6          0.691              1.678              1.431
 Vibration     7          0.705              1.636              1.312
 Vibration     8          0.713              1.614              1.256
 Vibration     9          0.751              1.510              1.034
 Vibration    10          0.816              1.342              0.771
 Vibration    11          0.830              1.310              0.729
 Vibration    12          0.890              1.172              0.576
 Vibration    13          0.894              1.165              0.568
 Vibration    14          0.930              1.089              0.498
 Vibration    15          0.946              1.055              0.469
 Vibration    16          0.955              1.037              0.454
 Vibration    17          0.976              0.997              0.422

 Normal termination of Gaussian 16 at Mon Mar  6 10:46:02 2023.
