 Gaussian 16, Revision C.01,
 Gaussian 16:  ES64L-G16RevC.01  3-Jul-2019

 ----------------------------------------------------------------------
 #p pop=(regular,nbo,savenbos) freq=noraman def2svp empiricaldispersion
 =gd3bj output=wfx pbe1pbe
 ----------------------------------------------------------------------

 ----------------------------------------
 ERUZOG_Complex_0_Ligand_2_ON_Cu_oriented
 ----------------------------------------
 Symbolic Z-matrix:
 Charge = -1 Multiplicity = 1

                         Standard orientation:
 ---------------------------------------------------------------------
 Center     Atomic      Atomic             Coordinates (Angstroms)
 Number     Number       Type             X           Y           Z
 ---------------------------------------------------------------------
      1          8           0       -0.210591   -2.189370    0.709727
      2          7           0       -3.076418   -1.079863    0.134375
      3          7           0       -0.988554   -0.018483   -0.346851
      4          6           0       -4.428624   -0.981834    0.158437
      5          1           0       -4.916048   -1.698921    0.496986
      6          6           0       -5.109638    0.105218   -0.283597
      7          1           0       -6.039563    0.129980   -0.259725
      8          6           0       -4.378039    1.177028   -0.772371
      9          1           0       -4.822615    1.929120   -1.093405
     10          6           0       -3.015287    1.142591   -0.787750
     11          6           0       -2.185178    2.307611   -1.261068
     12          1           0       -2.764763    3.016990   -1.549969
     13          1           0       -1.631065    2.619272   -0.541548
     14          1           0       -1.631154    2.029599   -1.994562
     15          6           0       -2.357738   -0.003206   -0.299768
     16          8           0       -0.381502   -0.246924    2.086199
     17         16           0       -0.141755   -0.727809    0.745997
     18          6           0        1.513072   -0.264730    0.249227
     19          6           0        2.050314    0.938731    0.752056
     20          6           0        3.371947    1.246750    0.396488
     21          1           0        3.756428    2.027676    0.722459
     22          6           0        1.275749    1.945797    1.560208
     23          1           0        1.220278    1.648989    2.472391
     24          1           0        1.723925    2.794517    1.526781
     25          1           0        0.392152    2.035695    1.198207
     26          6           0        4.120646    0.426154   -0.422231
     27          6           0        5.566391    0.834844   -0.736799
     28          1           0        5.860150    0.385176   -1.533203
     29          1           0        5.608393    1.785174   -0.873077
     30          1           0        6.135450    0.592220   -0.003238
     31          6           0        3.544570   -0.702566   -0.911941
     32          6           0        2.248605   -1.088337   -0.619567
     33          6           0        1.727789   -2.326544   -1.289610
     34          1           0        0.934506   -2.111927   -1.787621
     35          1           0        2.396376   -2.671170   -1.888196
     36          1           0        1.520559   -2.987470   -0.625114
     37          1           0        4.049150   -1.246239   -1.473477
 ---------------------------------------------------------------------

 SCF Done:  E(RPBE1PBE) =  -1237.85406126     A.U. after   15 cycles

 The electronic state is 1-A.
 Alpha  occ. eigenvalues --  -89.04213 -19.00431 -18.99217 -14.22316 -14.18927
 Alpha  occ. eigenvalues --  -10.14714 -10.13122 -10.12886 -10.12834 -10.11910
 Alpha  occ. eigenvalues --  -10.10568 -10.10481 -10.09937 -10.09664 -10.09551
 Alpha  occ. eigenvalues --  -10.09034 -10.07464 -10.06854 -10.06465 -10.06397
 Alpha  occ. eigenvalues --   -8.00941  -5.95118  -5.95078  -5.95020  -0.95571
 Alpha  occ. eigenvalues --   -0.81885  -0.81424  -0.77806  -0.74325  -0.70786
 Alpha  occ. eigenvalues --   -0.69963  -0.69880  -0.65571  -0.63957  -0.61784
 Alpha  occ. eigenvalues --   -0.60604  -0.59765  -0.53919  -0.50337  -0.49435
 Alpha  occ. eigenvalues --   -0.48989  -0.46480  -0.42407  -0.40013  -0.38691
 Alpha  occ. eigenvalues --   -0.37423  -0.37145  -0.35282  -0.34328  -0.33967
 Alpha  occ. eigenvalues --   -0.33654  -0.33449  -0.33026  -0.32657  -0.32036
 Alpha  occ. eigenvalues --   -0.31443  -0.30742  -0.30021  -0.29075  -0.28276
 Alpha  occ. eigenvalues --   -0.27481  -0.26344  -0.25314  -0.24856  -0.24548
 Alpha  occ. eigenvalues --   -0.24181  -0.19840  -0.18144  -0.15480  -0.14677
 Alpha  occ. eigenvalues --   -0.14322  -0.14046  -0.13832  -0.12197  -0.10789
 Alpha  occ. eigenvalues --   -0.09870  -0.05928
 Alpha virt. eigenvalues --    0.10932   0.11740   0.12739   0.14953   0.17503
 Alpha virt. eigenvalues --    0.20363   0.21226   0.21335   0.22458   0.23329
 Alpha virt. eigenvalues --    0.24209   0.24542   0.25818   0.27160   0.27213

 Mulliken charges:
               1
     1  O   -0.535803
     2  N   -0.219212
     3  N   -0.480387
     4  C    0.185412
     5  H   -0.110922
     6  C   -0.004340
     7  H   -0.135303
     8  C    0.112763
     9  H   -0.145634
    10  C   -0.233240
    11  C    0.361487
    12  H   -0.081861
    13  H   -0.027058
    14  H   -0.026487
    15  C    0.115449
    16  O   -0.530694
    17  S    0.865146
    18  C   -0.109731
    19  C   -0.155600
    20  C    0.009175
    21  H   -0.162798
    22  C    0.360160
    23  H   -0.010329
    24  H   -0.068421
    25  H   -0.021483
    26  C   -0.094749
    27  C    0.272302
    28  H   -0.042406
    29  H   -0.028715
    30  H   -0.014713
    31  C    0.008781
    32  C   -0.156885
    33  C    0.364651
    34  H   -0.014035
    35  H   -0.078430
    36  H   -0.002417
    37  H   -0.163671
 Sum of Mulliken charges =  -1.00000

 Dipole moment (field-independent basis, Debye):
    X=              4.9088    Y=              4.4232    Z=             -3.1339  Tot=              7.3131
 Quadrupole moment (field-independent basis, Debye-Ang):
   XX=           -143.4001   YY=           -134.8788   ZZ=           -136.0459
   XY=             -3.5314   XZ=              0.2979   YZ=              5.2374

  Exact polarizability:     269.566       8.477     169.401      -9.866       5.032     125.629
 Approx polarizability:     344.104      14.182     275.315     -19.868       7.279     202.213

 Summary of Natural Population Analysis:

                                       Natural Population
                Natural  -----------------------------------------------
    Atom  No    Charge         Core      Valence    Rydberg      Total
 -----------------------------------------------------------------------
      O    1   -0.99975      1.99977     6.99214    0.00784     8.99975
      N    2   -0.52925      1.99931     5.51372    0.01622     7.52925
      N    3   -1.01362      1.99921     5.99837    0.01604     8.01362
      C    4    0.08706      1.99909     3.89285    0.02100     5.91294
      H    5    0.13624      0.00000     0.86045    0.00331     0.86376
      C    6   -0.28467      1.99911     4.27058    0.01498     6.28467
      H    7    0.15905      0.00000     0.83730    0.00366     0.84095
      C    8   -0.17808      1.99899     4.16408    0.01501     6.17808
      H    9    0.15803      0.00000     0.83862    0.00335     0.84197
      C   10   -0.06497      1.99892     4.04994    0.01611     6.06497
      C   11   -0.55322      1.99915     4.54447    0.00960     6.55322
      H   12    0.17050      0.00000     0.82645    0.00305     0.82950
      H   13    0.19884      0.00000     0.79775    0.00341     0.80116
      H   14    0.19938      0.00000     0.79706    0.00356     0.80062
      C   15    0.43320      1.99892     3.53438    0.03349     5.56680
      O   16   -0.99785      1.99976     6.98992    0.00816     8.99785
      S   17    2.31099      9.99802     3.45728    0.23371    13.68901
      C   18   -0.27793      1.99863     4.24813    0.03117     6.27793
      C   19    0.03036      1.99895     3.95287    0.01781     5.96964
      C   20   -0.21847      1.99889     4.20378    0.01580     6.21847
      H   21    0.16209      0.00000     0.83457    0.00334     0.83791
      C   22   -0.55815      1.99910     4.54973    0.00932     6.55815
      H   23    0.21570      0.00000     0.78114    0.00316     0.78430
      H   24    0.17343      0.00000     0.82359    0.00299     0.82657
      H   25    0.21207      0.00000     0.78256    0.00537     0.78793
      C   26   -0.00028      1.99895     3.98588    0.01545     6.00028
      C   27   -0.55202      1.99914     4.54383    0.00905     6.55202
      H   28    0.18477      0.00000     0.81252    0.00271     0.81523
      H   29    0.18743      0.00000     0.80991    0.00266     0.81257
      H   30    0.18993      0.00000     0.80738    0.00269     0.81007
      C   31   -0.22702      1.99885     4.21217    0.01600     6.22702
      C   32    0.03224      1.99892     3.95033    0.01852     5.96776
      C   33   -0.55710      1.99912     4.54875    0.00924     6.55710
      H   34    0.21086      0.00000     0.78478    0.00436     0.78914
      H   35    0.16988      0.00000     0.82708    0.00304     0.83012
      H   36    0.22500      0.00000     0.77134    0.00366     0.77500
      H   37    0.16535      0.00000     0.83115    0.00350     0.83465
 =======================================================================
   * Total *   -1.00000     47.98081   105.42685    0.59235   154.00000

 ******   23 imaginary frequencies (negative Signs) ******

                      1                      2                      3
                      A                      A                      A
 Frequencies --  -1443.0739             -1407.2289             -1398.1957
 Red. masses --      1.0775                 1.0094                 1.0086
 Frc consts  --      1.3220                 1.1777                 1.1617
 IR Inten    --     41.4864                 0.1447                 0.3390

                      4                      5                      6
                      A                      A                      A
 Frequencies --  -1394.9972             -1391.5213             -1360.0892
 Red. masses --      1.0099                 1.0097                 1.0589
 Frc consts  --      1.1579                 1.1519                 1.1541
 IR Inten    --      0.8184                 0.3220                16.5745

                      7                      8                      9
                      A                      A                      A
 Frequencies --  -1334.0312             -1315.2929             -1259.7195
 Red. masses --      1.0470                 1.0400                 1.0406
 Frc consts  --      1.0978                 1.0601                 0.9730
 IR Inten    --      6.9829                 0.5410                 0.0566

                     10                     11                     12
                      A                      A                      A
 Frequencies --  -1034.2126             -1013.8655             -1005.1426
 Red. masses --      1.0593                 1.0551                 1.0627
 Frc consts  --      0.6676                 0.6390                 0.6326
 IR Inten    --      6.4122                 2.1430                14.1182

                     13                     14                     15
                      A                      A                      A
 Frequencies --  -1002.4875              -997.4491              -993.3665
 Red. masses --      1.0375                 1.0468                 1.0793
 Frc consts  --      0.6143                 0.6136                 0.6275
 IR Inten    --      6.4257                 2.4476                 3.9246

                     16                     17                     18
                      A                      A                      A
 Frequencies --   -971.6368              -962.9910              -941.1035
 Red. masses --      1.0396                 1.0323                 1.0951
 Frc consts  --      0.5783                 0.5640                 0.5715
 IR Inten    --      4.9875                25.7860                 3.7300

                     19                     20                     21
                      A                      A                      A
 Frequencies --   -831.2938              -795.5360              -767.5256
 Red. masses --      1.0755                 1.1014                 1.1065
 Frc consts  --      0.4379                 0.4107                 0.3841
 IR Inten    --      2.0671                 6.8203                 2.6255

                     22                     23                     24
                      A                      A                      A
 Frequencies --   -717.0147               -90.7421                81.8028
 Red. masses --      1.1218                12.3059                 6.6457
 Frc consts  --      0.3398                 0.0597                 0.0262
 IR Inten    --      4.6998                 1.1431                 0.0035

                     25                     26                     27
                      A                      A                      A
 Frequencies --    108.6203               116.9714               168.2863
 Red. masses --      8.1111                 6.2236                 6.2188
 Frc consts  --      0.0564                 0.0502                 0.1038
 IR Inten    --      1.6440                 0.2654                 3.6492

                     28                     29                     30
                      A                      A                      A
 Frequencies --    197.1490               221.9451               225.9165
 Red. masses --     10.8988                11.0430                 9.2351
 Frc consts  --      0.2496                 0.3205                 0.2777
 IR Inten    --      0.9923                 6.1785                 3.9086

                     31                     32                     33
                      A                      A                      A
 Frequencies --    283.9841               301.2691               310.0377
 Red. masses --      6.3597                 1.2751                 6.9353
 Frc consts  --      0.3022                 0.0682                 0.3928
 IR Inten    --      6.4279                 3.3164                 3.4053

                     34                     35                     36
                      A                      A                      A
 Frequencies --    345.6117               365.5565               389.6294
 Red. masses --      7.7196                 3.2174                 1.4498
 Frc consts  --      0.5433                 0.2533                 0.1297
 IR Inten    --      0.6839                 2.2289                 4.5777

                     37                     38                     39
                      A                      A                      A
 Frequencies --    405.5837               437.6596               446.7013
 Red. masses --      5.8950                 8.2221                 1.6162
 Frc consts  --      0.5713                 0.9279                 0.1900
 IR Inten    --      0.0213                 4.6146                 7.5566

                     40                     41                     42
                      A                      A                      A
 Frequencies --    467.0823               469.7962               476.2530
 Red. masses --      3.9408                 4.1901                 4.2053
 Frc consts  --      0.5065                 0.5449                 0.5620
 IR Inten    --     14.8383                21.4066                24.9139

                     43                     44                     45
                      A                      A                      A
 Frequencies --    492.0242               499.6851               539.3677
 Red. masses --      2.8492                 2.1780                 8.2898
 Frc consts  --      0.4064                 0.3204                 1.4209
 IR Inten    --     10.7066                 3.6402                25.8245

                     46                     47                     48
                      A                      A                      A
 Frequencies --    573.1919               583.9081               592.1681
 Red. masses --      6.5832                 5.4202                 4.4429
 Frc consts  --      1.2743                 1.0888                 0.9179
 IR Inten    --     95.6970                 3.4921                17.0343

                     49                     50                     51
                      A                      A                      A
 Frequencies --    599.1672               621.5414               655.6325
 Red. masses --      6.3504                 6.9888                 7.7327
 Frc consts  --      1.3432                 1.5907                 1.9584
 IR Inten    --     20.6582                56.0007                 6.1634

                     52                     53                     54
                      A                      A                      A
 Frequencies --    667.2696               699.0970               724.6296
 Red. masses --      6.2522                 5.3360                 4.6280
 Frc consts  --      1.6402                 1.5365                 1.4318
 IR Inten    --     15.6427                 0.4371                 0.3953

                     55                     56                     57
                      A                      A                      A
 Frequencies --    728.9915               742.8308               747.7084
 Red. masses --      5.3771                 6.6067                 4.4391
 Frc consts  --      1.6836                 2.1479                 1.4622
 IR Inten    --      2.4077                87.5888                 0.7841

                     58                     59                     60
                      A                      A                      A
 Frequencies --    798.9756               818.9964               839.0035
 Red. masses --      6.6236                 4.0882                 5.5702
 Frc consts  --      2.4912                 1.6157                 2.3102
 IR Inten    --      4.9399                19.9615                 8.1351

                     61                     62                     63
                      A                      A                      A
 Frequencies --    904.7987               950.4968               964.2628
 Red. masses --      6.4117                 1.1369                 1.1404
 Frc consts  --      3.0926                 0.6052                 0.6247
 IR Inten    --      8.2986                35.7772                26.5316

                     64                     65                     66
                      A                      A                      A
 Frequencies --    967.8949               989.5085               995.9080
 Red. masses --      1.1060                 1.2140                 1.1786
 Frc consts  --      0.6105                 0.7003                 0.6887
 IR Inten    --     69.2529                 3.4902                 9.6650

                     67                     68                     69
                      A                      A                      A
 Frequencies --   1007.3762              1014.8672              1017.0708
 Red. masses --      1.6014                 1.8565                 1.1841
 Frc consts  --      0.9575                 1.1266                 0.7217
 IR Inten    --      1.1799                 6.9663                 6.6950

                     70                     71                     72
                      A                      A                      A
 Frequencies --   1020.4902              1026.6229              1071.2494
 Red. masses --      1.3108                 2.9400                 9.6542
 Frc consts  --      0.8043                 1.8257                 6.5275
 IR Inten    --      6.9643                 2.4614               146.5769

                     73                     74                     75
                      A                      A                      A
 Frequencies --   1135.0912              1174.6792              1231.8128
 Red. masses --      9.2601                 8.7223                13.2183
 Frc consts  --      7.0296                 7.0912                11.8172
 IR Inten    --     71.8235                13.1501               230.7952

                     76                     77                     78
                      A                      A                      A
 Frequencies --   1284.7674              1361.1488              1367.5405
 Red. masses --      9.4922                10.6362                14.7051
 Frc consts  --      9.2314                11.6105                16.2031
 IR Inten    --    116.6457                66.7580               138.2870

                     79                     80                     81
                      A                      A                      A
 Frequencies --   1390.9818              1401.2258              1409.8662
 Red. masses --     10.4969                 8.7976                 8.8718
 Frc consts  --     11.9661                10.1772                10.3900
 IR Inten    --    480.1951                 1.4755               105.0060

                     82                     83                     84
                      A                      A                      A
 Frequencies --   1471.4920              1493.0612              1506.9858
 Red. masses --      8.8212                 9.3170                10.6837
 Frc consts  --     11.2536                12.2372                14.2952
 IR Inten    --      4.5679                55.1106               930.0463

                     85                     86                     87
                      A                      A                      A
 Frequencies --   1660.8476              1670.4780              1707.1750
 Red. masses --     10.6979                10.5481                10.0419
 Frc consts  --     17.3863                17.3422                17.2434
 IR Inten    --     17.9548                20.8594               226.4130

                     88                     89                     90
                      A                      A                      A
 Frequencies --   1738.4001              4461.7550              4463.6914
 Red. masses --     10.1515                 1.0329                 1.0323
 Frc consts  --     18.0750                12.1154                12.1179
 IR Inten    --     28.0758                18.6440                19.2665

                     91                     92                     93
                      A                      A                      A
 Frequencies --   4464.5444              4468.9013              4657.5190
 Red. masses --      1.0320                 1.0327                 1.1063
 Frc consts  --     12.1192                12.1513                14.1395
 IR Inten    --     18.2914                15.8269                10.0048

                     94                     95                     96
                      A                      A                      A
 Frequencies --   4664.6971              4665.7933              4668.2684
 Red. masses --      1.1063                 1.1063                 1.1068
 Frc consts  --     14.1832                14.1901                14.2115
 IR Inten    --     11.3239                 7.9573                 3.6086

                     97                     98                     99
                      A                      A                      A
 Frequencies --   4675.8511              4676.6350              4681.3906
 Red. masses --      1.1066                 1.1067                 1.1061
 Frc consts  --     14.2542                14.2614                14.2821
 IR Inten    --      0.9134                 2.3395                 1.8781

                    100                    101                    102
                      A                      A                      A
 Frequencies --   4687.3618              5006.9385              5013.0603
 Red. masses --      1.1065                 1.0867                 1.0887
 Frc consts  --     14.3240                16.0507                16.1203
 IR Inten    --      0.8884                 3.8518                 6.7588

                    103                    104                    105
                      A                      A                      A
 Frequencies --   5014.2596              5025.5059              5029.6209
 Red. masses --      1.0888                 1.0923                 1.0888
 Frc consts  --     16.1286                16.2540                16.2280
 IR Inten    --     11.2793                17.6099                 4.8909

 - Thermochemistry -
 -------------------
 Temperature   298.150 Kelvin.  Pressure   1.00000 Atm.
 Atom     1 has atomic number  8 and mass  15.99491

 Molecular mass:   289.10107 amu.
 Principal axes and moments of inertia in atomic units:
                           1         2         3
     Eigenvalues --  2527.311739678.13736**********
           X            0.99999  -0.00189  -0.00261
           Y            0.00200   0.99910   0.04243
           Z            0.00252  -0.04244   0.99910
 This molecule is an asymmetric top.
 Rotational symmetry number  1.
 Warning -- assumption of classical behavior for rotation
           may cause significant error
 Rotational temperatures (Kelvin)      0.03427     0.00895     0.00829
 Rotational constants (GHZ):           0.71410     0.18648     0.17272
   23 imaginary frequencies ignored.
 Zero-point vibrational energy     795552.2 (Joules/Mol)
                                  190.14153 (Kcal/Mol)
 Warning -- explicit consideration of  26 degrees of freedom as
           vibrations may cause significant error
 Vibrational temperatures:    117.70   156.28   168.30   242.13   283.65
          (Kelvin)            319.33   325.04   408.59   433.46   446.08
                              497.26   525.95   560.59   583.54   629.69
                              642.70   672.03   675.93   685.22   707.91
                              718.94   776.03   824.70   840.11   852.00
                              862.07   894.26   943.31   960.05  1005.84
                             1042.58  1048.86  1068.77  1075.79  1149.55
                             1178.35  1207.14  1301.80  1367.55  1387.36
                             1392.58  1423.68  1432.89  1449.39  1460.17
                             1463.34  1468.26  1477.08  1541.29  1633.14
                             1690.10  1772.30  1848.49  1958.39  1967.59
                             2001.31  2016.05  2028.48  2117.15  2148.18
                             2168.22  2389.59  2403.45  2456.24  2501.17
                             6419.47  6422.26  6423.48  6429.75  6701.13
                             6711.46  6713.04  6716.60  6727.51  6728.63
                             6735.48  6744.07  7203.87  7212.68  7214.40
                             7230.58  7236.50

 Zero-point correction=                           0.303010 (Hartree/Particle)
 Thermal correction to Energy=                    0.317184
 Thermal correction to Enthalpy=                  0.318129
 Thermal correction to Gibbs Free Energy=         0.262895
 Sum of electronic and zero-point Energies=          -1237.551051
 Sum of electronic and thermal Energies=             -1237.536877
 Sum of electronic and thermal Enthalpies=           -1237.535933
 Sum of electronic and thermal Free Energies=        -1237.591167

                     E (Thermal)             CV                S
                      KCal/Mol        Cal/Mol-Kelvin    Cal/Mol-Kelvin
 Total                  199.036             59.778            116.250
 Electronic               0.000              0.000              0.000
 Translational            0.889              2.981             42.882
 Rotational               0.889              2.981             33.902
 Vibrational            197.259             53.817             39.466
 Vibration     1          0.600              1.962              3.847
 Vibration     2          0.606              1.942              3.293
 Vibration     3          0.608              1.935              3.150
 Vibration     4          0.625              1.881              2.455
 Vibration     5          0.637              1.844              2.160
 Vibration     6          0.648              1.808              1.943
 Vibration     7          0.650              1.802              1.911
 Vibration     8          0.682              1.703              1.510
 Vibration     9          0.693              1.671              1.410
 Vibration    10          0.699              1.655              1.362
 Vibration    11          0.724              1.584              1.186
 Vibration    12          0.739              1.543              1.098
 Vibration    13          0.758              1.492              1.002
 Vibration    14          0.771              1.458              0.942
 Vibration    15          0.798              1.388              0.834
 Vibration    16          0.806              1.368              0.806
 Vibration    17          0.824              1.323              0.746
 Vibration    18          0.827              1.317              0.738
 Vibration    19          0.833              1.303              0.720
 Vibration    20          0.848              1.268              0.678
 Vibration    21          0.855              1.251              0.659
 Vibration    22          0.894              1.163              0.567
 Vibration    23          0.929              1.089              0.498
 Vibration    24          0.941              1.066              0.478
 Vibration    25          0.950              1.048              0.463
 Vibration    26          0.957              1.034              0.451

 Normal termination of Gaussian 16 at Mon Mar  6 11:30:03 2023.
