 Gaussian 16, Revision C.01,
 Gaussian 16:  ES64L-G16RevC.01  3-Jul-2019

 ----------------------------------------------------------------------
 #p pop=(regular,nbo,savenbos) freq=noraman def2svp empiricaldispersion
 =gd3bj output=wfx pbe1pbe
 ----------------------------------------------------------------------

 ----------------------------------------
 ERUZAS_Complex_3_Ligand_1_ON_Cu_oriented
 ----------------------------------------
 Symbolic Z-matrix:
 Charge = -1 Multiplicity = 1

                         Standard orientation:
 ---------------------------------------------------------------------
 Center     Atomic      Atomic             Coordinates (Angstroms)
 Number     Number       Type             X           Y           Z
 ---------------------------------------------------------------------
      1         16           0        0.065900    1.704907    0.159502
      2          8           0       -0.106630    2.292912   -1.158572
      3          8           0        0.517568    2.616206    1.173094
      4          7           0       -2.233693    0.176001   -1.289515
      5          7           0       -1.199439    0.950468    0.739759
      6          6           0       -3.126884   -0.681849   -1.867787
      7          1           0       -3.295363   -0.614092   -2.779751
      8          6           0       -3.783077   -1.640629   -1.135548
      9          1           0       -4.377618   -2.226256   -1.544077
     10          6           0       -3.546650   -1.713424    0.188728
     11          1           0       -4.013769   -2.342779    0.689833
     12          6           0       -2.642252   -0.895768    0.825952
     13          6           0       -1.995557    0.101253    0.021321
     14          6           0       -2.362871   -0.959416    2.282010
     15          1           0       -2.550919   -0.107586    2.681104
     16          1           0       -1.440217   -1.181576    2.421375
     17          1           0       -2.917133   -1.631900    2.684521
     18          6           0        1.362969    0.509778    0.014451
     19          6           0        2.083788    0.426009   -1.158990
     20          1           0        1.817459    0.914450   -1.903952
     21          6           0        3.216591   -0.393620   -1.227543
     22          1           0        3.721323   -0.423680   -2.008882
     23          6           0        2.827042   -1.043710    1.013267
     24          6           0        1.753684   -0.228455    1.091691
     25          1           0        1.273804   -0.171288    1.886075
     26          6           0        3.586952   -1.159774   -0.139074
     27          6           0        4.820948   -2.052018   -0.233222
     28          1           0        4.763545   -2.594029   -1.023372
     29          1           0        4.866372   -2.619333    0.539868
     30          1           0        5.609281   -1.504866   -0.275975
     31          1           0        3.065154   -1.544065    1.761786
 ---------------------------------------------------------------------

 SCF Done:  E(RPBE1PBE) =  -1159.41094260     A.U. after   15 cycles

 The electronic state is 1-A.
 Alpha  occ. eigenvalues --  -89.04127 -19.00202 -19.00073 -14.22157 -14.18637
 Alpha  occ. eigenvalues --  -10.14303 -10.13568 -10.11409 -10.10967 -10.10848
 Alpha  occ. eigenvalues --  -10.10819 -10.10636 -10.10579 -10.10190 -10.09348
 Alpha  occ. eigenvalues --  -10.08427 -10.07223 -10.05995  -8.00874  -5.95058
 Alpha  occ. eigenvalues --   -5.94997  -5.94961  -0.95813  -0.82824  -0.81453
 Alpha  occ. eigenvalues --   -0.78215  -0.73607  -0.70754  -0.69894  -0.67156
 Alpha  occ. eigenvalues --   -0.65526  -0.63157  -0.59616  -0.54048  -0.53532
 Alpha  occ. eigenvalues --   -0.51194  -0.49823  -0.47247  -0.43381  -0.39769
 Alpha  occ. eigenvalues --   -0.39076  -0.38738  -0.37462  -0.37079  -0.35579
 Alpha  occ. eigenvalues --   -0.34503  -0.33439  -0.33228  -0.32626  -0.31485
 Alpha  occ. eigenvalues --   -0.29769  -0.28865  -0.27828  -0.27151  -0.26693
 Alpha  occ. eigenvalues --   -0.26178  -0.25548  -0.25316  -0.18729  -0.18598
 Alpha  occ. eigenvalues --   -0.16500  -0.16019  -0.15846  -0.14071  -0.13209
 Alpha  occ. eigenvalues --   -0.12950  -0.10598  -0.08787  -0.06413
 Alpha virt. eigenvalues --    0.10325   0.11040   0.12825   0.15284   0.17376
 Alpha virt. eigenvalues --    0.20531   0.21429   0.22495   0.22932   0.23879
 Alpha virt. eigenvalues --    0.25182   0.26622   0.27776   0.27796   0.28294

 Mulliken charges:
               1
     1  S    0.890215
     2  O   -0.515140
     3  O   -0.526716
     4  N   -0.205304
     5  N   -0.490856
     6  C    0.184131
     7  H   -0.111947
     8  C   -0.003899
     9  H   -0.138397
    10  C    0.120978
    11  H   -0.148897
    12  C   -0.262949
    13  C    0.108348
    14  C    0.380840
    15  H   -0.021541
    16  H   -0.038646
    17  H   -0.083693
    18  C   -0.070819
    19  C    0.123069
    20  H   -0.113173
    21  C    0.054637
    22  H   -0.135653
    23  C    0.063479
    24  C    0.149281
    25  H   -0.123774
    26  C   -0.138190
    27  C    0.273229
    28  H   -0.021657
    29  H   -0.045624
    30  H   -0.013716
    31  H   -0.137615
 Sum of Mulliken charges =  -1.00000

 Dipole moment (field-independent basis, Debye):
    X=              3.8354    Y=             -7.6649    Z=              0.3858  Tot=              8.5796
 Quadrupole moment (field-independent basis, Debye-Ang):
   XX=           -124.1679   YY=           -135.1450   ZZ=           -118.5123
   XY=             -2.1439   XZ=             -3.9368   YZ=             -2.5886

  Exact polarizability:     198.340       5.718     138.910       4.422      -3.748     154.222
 Approx polarizability:     250.059      12.443     222.903       6.721      -8.239     271.631

 Summary of Natural Population Analysis:

                                       Natural Population
                Natural  -----------------------------------------------
    Atom  No    Charge         Core      Valence    Rydberg      Total
 -----------------------------------------------------------------------
      S    1    2.32037      9.99797     3.44599    0.23567    13.67963
      O    2   -0.98870      1.99977     6.98125    0.00767     8.98870
      O    3   -0.98685      1.99976     6.97839    0.00870     8.98685
      N    4   -0.53856      1.99926     5.52306    0.01623     7.53856
      N    5   -1.00059      1.99924     5.98508    0.01627     8.00059
      C    6    0.08991      1.99911     3.88996    0.02103     5.91009
      H    7    0.13435      0.00000     0.86244    0.00321     0.86565
      C    8   -0.28441      1.99909     4.27024    0.01508     6.28441
      H    9    0.15863      0.00000     0.83755    0.00381     0.84137
      C   10   -0.18969      1.99899     4.17504    0.01567     6.18969
      H   11    0.15725      0.00000     0.83911    0.00363     0.84275
      C   12   -0.04829      1.99899     4.03236    0.01695     6.04829
      C   13    0.42595      1.99895     3.54082    0.03428     5.57405
      C   14   -0.56071      1.99914     4.55176    0.00980     6.56071
      H   15    0.20682      0.00000     0.78949    0.00369     0.79318
      H   16    0.19774      0.00000     0.79863    0.00363     0.80226
      H   17    0.17021      0.00000     0.82654    0.00326     0.82979
      C   18   -0.27414      1.99882     4.24514    0.03018     6.27414
      C   19   -0.14052      1.99899     4.12332    0.01821     6.14052
      H   20    0.18974      0.00000     0.80588    0.00438     0.81026
      C   21   -0.19435      1.99898     4.18024    0.01512     6.19435
      H   22    0.16228      0.00000     0.83453    0.00319     0.83772
      C   23   -0.19950      1.99897     4.18507    0.01546     6.19950
      C   24   -0.14600      1.99895     4.12863    0.01841     6.14600
      H   25    0.18446      0.00000     0.81060    0.00494     0.81554
      C   26   -0.02045      1.99903     4.00653    0.01489     6.02045
      C   27   -0.55556      1.99914     4.54740    0.00902     6.55556
      H   28    0.18980      0.00000     0.80752    0.00268     0.81020
      H   29    0.18518      0.00000     0.81212    0.00270     0.81482
      H   30    0.19103      0.00000     0.80625    0.00271     0.80897
      H   31    0.16459      0.00000     0.83204    0.00337     0.83541
 =======================================================================
   * Total *   -1.00000     43.98314    93.45300    0.56386   138.00000

 ******   20 imaginary frequencies (negative Signs) ******

                      1                      2                      3
                      A                      A                      A
 Frequencies --  -1452.8508             -1420.8844             -1407.0661
 Red. masses --      1.0780                 1.0621                 1.0151
 Frc consts  --      1.3407                 1.2634                 1.1841
 IR Inten    --     41.0368                36.3697                 6.6690

                      4                      5                      6
                      A                      A                      A
 Frequencies --  -1402.6799             -1370.8918             -1333.5980
 Red. masses --      1.0085                 1.0533                 1.0358
 Frc consts  --      1.1691                 1.1663                 1.0854
 IR Inten    --      0.2718                 0.5115                 0.7729

                      7                      8                      9
                      A                      A                      A
 Frequencies --  -1261.1966             -1244.3122             -1216.9252
 Red. masses --      1.0400                 1.0251                 1.0378
 Frc consts  --      0.9746                 0.9352                 0.9055
 IR Inten    --      0.0641                 0.3192                 0.2670

                     10                     11                     12
                      A                      A                      A
 Frequencies --  -1026.7735             -1019.4556             -1009.5464
 Red. masses --      1.0604                 1.0583                 1.0415
 Frc consts  --      0.6587                 0.6480                 0.6254
 IR Inten    --      7.8231                 5.3874                 8.3883

                     13                     14                     15
                      A                      A                      A
 Frequencies --  -1000.8923              -938.9265              -919.4686
 Red. masses --      1.0525                 1.0969                 1.0928
 Frc consts  --      0.6212                 0.5697                 0.5443
 IR Inten    --      4.8388                 2.7216                12.2683

                     16                     17                     18
                      A                      A                      A
 Frequencies --   -858.0999              -811.9161              -789.6790
 Red. masses --      1.0854                 1.1107                 1.1282
 Frc consts  --      0.4709                 0.4314                 0.4145
 IR Inten    --     11.0724                 1.0385                 4.7121

                     19                     20                     21
                      A                      A                      A
 Frequencies --   -737.1490              -697.8330                51.5055
 Red. masses --      1.1057                 1.0488                 7.8937
 Frc consts  --      0.3540                 0.3009                 0.0123
 IR Inten    --      5.7588                15.3072                 1.2173

                     22                     23                     24
                      A                      A                      A
 Frequencies --     64.3741               110.4241               159.3484
 Red. masses --      7.1786                 9.1520                 9.3418
 Frc consts  --      0.0175                 0.0657                 0.1398
 IR Inten    --      1.0927                 3.7354                 0.1980

                     25                     26                     27
                      A                      A                      A
 Frequencies --    197.3508               198.9488               242.6432
 Red. masses --      9.4321                10.8723                 9.8213
 Frc consts  --      0.2164                 0.2535                 0.3407
 IR Inten    --      0.3198                 2.4205                 0.2028

                     28                     29                     30
                      A                      A                      A
 Frequencies --    281.5697               311.1546               319.5350
 Red. masses --      9.3460                 9.2530                 1.1961
 Frc consts  --      0.4366                 0.5278                 0.0720
 IR Inten    --      6.1282                 2.7716                 4.6774

                     31                     32                     33
                      A                      A                      A
 Frequencies --    324.1876               364.0693               396.2133
 Red. masses --      8.1998                 4.4808                 1.2978
 Frc consts  --      0.5077                 0.3499                 0.1200
 IR Inten    --      5.2458                 0.9154                 8.4111

                     34                     35                     36
                      A                      A                      A
 Frequencies --    409.1651               416.5599               454.2991
 Red. masses --      8.4196                 7.9467                 8.9843
 Frc consts  --      0.8305                 0.8124                 1.0925
 IR Inten    --      0.1874                 0.1459                 3.6876

                     37                     38                     39
                      A                      A                      A
 Frequencies --    520.2840               543.2427               588.9447
 Red. masses --     10.6717                11.8885                 8.3983
 Frc consts  --      1.7020                 2.0671                 1.7163
 IR Inten    --      3.1198                76.3597                48.6541

                     40                     41                     42
                      A                      A                      A
 Frequencies --    594.2281               616.5390               632.8730
 Red. masses --      6.7580                 6.3533                 7.2959
 Frc consts  --      1.4060                 1.4229                 1.7217
 IR Inten    --     39.0257                62.4413                 4.2175

                     43                     44                     45
                      A                      A                      A
 Frequencies --    655.2132               662.6069               684.7339
 Red. masses --      6.2649                 8.0094                 7.4332
 Frc consts  --      1.5846                 2.0719                 2.0534
 IR Inten    --     11.7476                 0.4548                34.2102

                     46                     47                     48
                      A                      A                      A
 Frequencies --    697.4164               721.5383               740.2420
 Red. masses --      6.8320                 5.9333                 4.5346
 Frc consts  --      1.9579                 1.8200                 1.4640
 IR Inten    --     56.2960                11.1044                 2.0488

                     49                     50                     51
                      A                      A                      A
 Frequencies --    798.7469               809.1776               831.2478
 Red. masses --      7.8284                 5.6077                 4.8251
 Frc consts  --      2.9427                 2.1633                 1.9644
 IR Inten    --     65.6408                10.9771                 6.0636

                     52                     53                     54
                      A                      A                      A
 Frequencies --    891.0585               908.0349               956.4616
 Red. masses --      5.9869                 5.1502                 1.1243
 Frc consts  --      2.8007                 2.5020                 0.6060
 IR Inten    --     26.5851                23.7195                29.8861

                     55                     56                     57
                      A                      A                      A
 Frequencies --    977.9859               991.5238              1011.4709
 Red. masses --      1.0564                 1.2177                 1.1410
 Frc consts  --      0.5953                 0.7053                 0.6877
 IR Inten    --     10.4907                 7.8521                 8.5754

                     58                     59                     60
                      A                      A                      A
 Frequencies --   1040.4356              1108.5916              1193.6845
 Red. masses --      8.5035                 7.7202                 8.4034
 Frc consts  --      5.4235                 5.5901                 7.0548
 IR Inten    --    147.2284                13.8341                 7.5428

                     61                     62                     63
                      A                      A                      A
 Frequencies --   1228.8254              1247.1179              1331.3622
 Red. masses --      8.7038                14.0996                 9.8305
 Frc consts  --      7.7436                12.9203                10.2664
 IR Inten    --     88.1372               276.2242               211.4974

                     64                     65                     66
                      A                      A                      A
 Frequencies --   1366.3645              1413.9348              1418.9949
 Red. masses --      8.2849                10.0858                15.2760
 Frc consts  --      9.1132                11.8801                18.1226
 IR Inten    --     18.8751                73.8422               175.8111

                     67                     68                     69
                      A                      A                      A
 Frequencies --   1443.3863              1463.0169              1495.9498
 Red. masses --      9.7442                 9.2264                 9.3460
 Frc consts  --     11.9609                11.6354                12.3228
 IR Inten    --     80.3952                 4.7980               201.3535

                     70                     71                     72
                      A                      A                      A
 Frequencies --   1507.6183              1635.3733              1710.8104
 Red. masses --     10.9216                 9.6478                10.3050
 Frc consts  --     14.6258                15.2023                17.7706
 IR Inten    --    633.4902               118.2678                 1.2878

                     73                     74                     75
                      A                      A                      A
 Frequencies --   1742.9235              1746.0186              4467.1243
 Red. masses --     10.4846                10.5575                 1.0320
 Frc consts  --     18.7654                18.9632                12.1335
 IR Inten    --     17.9255                58.0853                16.0208

                     76                     77                     78
                      A                      A                      A
 Frequencies --   4471.9098              4671.4425              4671.7114
 Red. masses --      1.0325                 1.1060                 1.1068
 Frc consts  --     12.1658                14.2197                14.2318
 IR Inten    --     25.5494                12.2910                 2.2552

                     79                     80                     81
                      A                      A                      A
 Frequencies --   4678.4505              4686.1653              5003.5301
 Red. masses --      1.1068                 1.1064                 1.0882
 Frc consts  --     14.2733                14.3151                16.0512
 IR Inten    --      2.9820                 0.5800                 5.3095

                     82                     83                     84
                      A                      A                      A
 Frequencies --   5010.1009              5019.1101              5029.5321
 Red. masses --      1.0874                 1.0886                 1.0882
 Frc consts  --     16.0813                16.1579                16.2185
 IR Inten    --     11.8464                 4.3747                 3.3388

                     85                     86                     87
                      A                      A                      A
 Frequencies --   5035.0976              5040.8726              5045.9797
 Red. masses --      1.0904                 1.0921                 1.0898
 Frc consts  --     16.2880                16.3496                16.3485
 IR Inten    --      1.7148                17.4175                 4.6418

 - Thermochemistry -
 -------------------
 Temperature   298.150 Kelvin.  Pressure   1.00000 Atm.
 Atom     1 has atomic number 16 and mass  31.97207

 Molecular mass:   261.06977 amu.
 Principal axes and moments of inertia in atomic units:
                           1         2         3
     Eigenvalues --  2951.860847072.360337795.80040
           X            0.99992  -0.00967  -0.00842
           Y            0.00941   0.99947  -0.03119
           Z            0.00872   0.03111   0.99948
 This molecule is an asymmetric top.
 Rotational symmetry number  1.
 Warning -- assumption of classical behavior for rotation
           may cause significant error
 Rotational temperatures (Kelvin)      0.02934     0.01225     0.01111
 Rotational constants (GHZ):           0.61139     0.25518     0.23150
   20 imaginary frequencies ignored.
 Zero-point vibrational energy     640363.1 (Joules/Mol)
                                  153.05046 (Kcal/Mol)
 Warning -- explicit consideration of  21 degrees of freedom as
           vibrations may cause significant error
 Vibrational temperatures:     74.10    92.62   158.88   229.27   283.94
          (Kelvin)            286.24   349.11   405.12   447.68   459.74
                              466.43   523.81   570.06   588.70   599.34
                              653.64   748.57   781.61   847.36   854.96
                              887.06   910.56   942.71   953.34   985.18
                             1003.43  1038.13  1065.04  1149.22  1164.23
                             1195.98  1282.03  1306.46  1376.13  1407.10
                             1426.58  1455.28  1496.95  1595.02  1717.45
                             1768.01  1794.32  1915.53  1965.89  2034.34
                             2041.62  2076.71  2104.96  2152.34  2169.13
                             2352.94  2461.47  2507.68  2512.13  6427.20
                             6434.08  6721.16  6721.55  6731.25  6742.35
                             7198.96  7208.42  7221.38  7236.37  7244.38
                             7252.69  7260.04

 Zero-point correction=                           0.243901 (Hartree/Particle)
 Thermal correction to Energy=                    0.256863
 Thermal correction to Enthalpy=                  0.257807
 Thermal correction to Gibbs Free Energy=         0.203797
 Sum of electronic and zero-point Energies=          -1159.167041
 Sum of electronic and thermal Energies=             -1159.154080
 Sum of electronic and thermal Enthalpies=           -1159.153136
 Sum of electronic and thermal Free Energies=        -1159.207146

                     E (Thermal)             CV                S
                      KCal/Mol        Cal/Mol-Kelvin    Cal/Mol-Kelvin
 Total                  161.184             51.133            113.674
 Electronic               0.000              0.000              0.000
 Translational            0.889              2.981             42.578
 Rotational               0.889              2.981             33.453
 Vibrational            159.406             45.171             37.643
 Vibration     1          0.596              1.977              4.759
 Vibration     2          0.597              1.971              4.318
 Vibration     3          0.606              1.941              3.261
 Vibration     4          0.621              1.892              2.558
 Vibration     5          0.637              1.844              2.158
 Vibration     6          0.637              1.841              2.143
 Vibration     7          0.659              1.775              1.783
 Vibration     8          0.681              1.708              1.524
 Vibration     9          0.700              1.652              1.356
 Vibration    10          0.705              1.636              1.312
 Vibration    11          0.709              1.627              1.289
 Vibration    12          0.738              1.546              1.105
 Vibration    13          0.763              1.478              0.977
 Vibration    14          0.774              1.450              0.930
 Vibration    15          0.780              1.434              0.904
 Vibration    16          0.813              1.351              0.783
 Vibration    17          0.875              1.205              0.609
 Vibration    18          0.898              1.154              0.558
 Vibration    19          0.946              1.055              0.469
 Vibration    20          0.952              1.044              0.460
 Vibration    21          0.976              0.997              0.422

 Normal termination of Gaussian 16 at Mon Mar  6 11:05:57 2023.
