 Gaussian 16, Revision C.01,
 Gaussian 16:  ES64L-G16RevC.01  3-Jul-2019

 ----------------------------------------------------------------------
 #p pop=(regular,nbo,savenbos) freq=noraman def2svp empiricaldispersion
 =gd3bj output=wfx pbe1pbe
 ----------------------------------------------------------------------

 ----------------------------------------
 ESABOP_Complex_1_Ligand_1_ON_Cu_oriented
 ----------------------------------------
 Symbolic Z-matrix:
 Charge = -1 Multiplicity = 1

                         Standard orientation:
 ---------------------------------------------------------------------
 Center     Atomic      Atomic             Coordinates (Angstroms)
 Number     Number       Type             X           Y           Z
 ---------------------------------------------------------------------
      1         16           0       -2.486790   -1.334430    0.323159
      2          8           0       -2.121042   -1.413299    1.708418
      3          7           0       -1.253031   -1.346696   -0.640589
      4          6           0       -3.236935    0.262496    0.098110
      5          6           0       -3.845313    0.624704   -1.104899
      6          1           0       -3.826305    0.030276   -1.820649
      7          6           0       -4.450021    1.805171   -1.252708
      8          1           0       -4.910861    1.993044   -2.037991
      9          6           0       -4.397296    2.729887   -0.266472
     10          1           0       -4.757221    3.576019   -0.412574
     11          6           0       -3.808146    2.433628    0.980448
     12          1           0       -3.837611    3.031829    1.690789
     13          6           0       -3.188555    1.215835    1.086316
     14          1           0       -2.713170    1.025860    1.863500
     15         16           0        1.067745   -0.751139   -1.695451
     16          7           0        0.566082   -0.755059    0.866100
     17         17           0        6.061124    1.036437   -0.249465
     18          6           0        4.467676    0.467110    0.111008
     19          6           0        3.648288    0.107724   -0.930383
     20          1           0        3.943237    0.133958   -1.810187
     21          6           0        2.355176   -0.296443   -0.608975
     22          6           0        1.922088   -0.369043    0.691972
     23          6           0        2.781003   -0.049493    1.742812
     24          1           0        2.500483   -0.105918    2.627466
     25          6           0        4.062029    0.354013    1.431967
     26          1           0        4.659747    0.551740    2.115789
     27          6           0        0.008901   -0.976234   -0.331732
     28          8           0       -3.441135   -2.290573   -0.143658
 ---------------------------------------------------------------------

 SCF Done:  E(RPBE1PBE) =  -2014.34586532     A.U. after   16 cycles

 The electronic state is 1-A.
 Alpha  occ. eigenvalues -- -101.58477 -89.06864 -88.90466 -19.02951 -19.02402
 Alpha  occ. eigenvalues --  -14.23979 -14.22119 -10.19751 -10.18244 -10.15188
 Alpha  occ. eigenvalues --  -10.14932 -10.13313 -10.13107 -10.12476 -10.12380
 Alpha  occ. eigenvalues --  -10.12370 -10.11759 -10.11613 -10.11504 -10.11497
 Alpha  occ. eigenvalues --   -9.43714  -8.03621  -7.90759  -7.17816  -7.16871
 Alpha  occ. eigenvalues --   -7.16866  -5.97820  -5.97741  -5.97705  -5.84912
 Alpha  occ. eigenvalues --   -5.84550  -5.84113  -0.99087  -0.86190  -0.85347
 Alpha  occ. eigenvalues --   -0.81580  -0.79267  -0.77457  -0.73521  -0.70725
 Alpha  occ. eigenvalues --   -0.68997  -0.68176  -0.65203  -0.63011  -0.57076
 Alpha  occ. eigenvalues --   -0.54967  -0.54273  -0.52195  -0.50316  -0.48221
 Alpha  occ. eigenvalues --   -0.44325  -0.42708  -0.40902  -0.39737  -0.38340
 Alpha  occ. eigenvalues --   -0.37768  -0.36884  -0.36453  -0.35315  -0.33492
 Alpha  occ. eigenvalues --   -0.33026  -0.32551  -0.31127  -0.29854  -0.29625
 Alpha  occ. eigenvalues --   -0.28984  -0.28832  -0.26766  -0.25158  -0.23837
 Alpha  occ. eigenvalues --   -0.22859  -0.21700  -0.20077  -0.19038  -0.18433
 Alpha  occ. eigenvalues --   -0.17505  -0.17064  -0.15935  -0.15577  -0.14719
 Alpha  occ. eigenvalues --   -0.13346  -0.11575  -0.08702
 Alpha virt. eigenvalues --    0.08050   0.09240   0.10291   0.11162   0.14703
 Alpha virt. eigenvalues --    0.16681   0.17843   0.18981   0.22085   0.22392
 Alpha virt. eigenvalues --    0.24016   0.24266   0.25036   0.26377   0.27095

 Mulliken charges:
               1
     1  S    0.886457
     2  O   -0.485686
     3  N   -0.441242
     4  C   -0.089247
     5  C    0.135609
     6  H   -0.109751
     7  C    0.094470
     8  H   -0.114952
     9  C    0.084302
    10  H   -0.109708
    11  C    0.094291
    12  H   -0.112169
    13  C    0.106552
    14  H   -0.099152
    15  S    0.043398
    16  N   -0.232906
    17  Cl  -0.159506
    18  C    0.033802
    19  C    0.073030
    20  H   -0.143856
    21  C   -0.056813
    22  C    0.099948
    23  C    0.070954
    24  H   -0.127151
    25  C    0.106902
    26  H   -0.130167
    27  C    0.086927
    28  O   -0.504336
 Sum of Mulliken charges =  -1.00000

 Dipole moment (field-independent basis, Debye):
    X=              2.6344    Y=              6.0187    Z=             -1.5310  Tot=              6.7460
 Quadrupole moment (field-independent basis, Debye-Ang):
   XX=           -184.8817   YY=           -150.4321   ZZ=           -138.7818
   XY=            -20.3006   XZ=              5.4342   YZ=              3.2510

  Exact polarizability:     290.900       6.542     144.237      17.272       7.128     165.179
 Approx polarizability:     379.092      31.809     233.468      34.985      19.475     315.975

 Summary of Natural Population Analysis:

                                       Natural Population
                Natural  -----------------------------------------------
    Atom  No    Charge         Core      Valence    Rydberg      Total
 -----------------------------------------------------------------------
      S    1    2.34251      9.99794     3.41749    0.24206    13.65749
      O    2   -0.97838      1.99977     6.97060    0.00801     8.97838
      N    3   -0.97239      1.99913     5.95458    0.01868     7.97239
      C    4   -0.27426      1.99883     4.24531    0.03011     6.27426
      C    5   -0.13844      1.99899     4.12165    0.01780     6.13844
      H    6    0.18035      0.00000     0.81536    0.00430     0.81965
      C    7   -0.19617      1.99906     4.18239    0.01472     6.19617
      H    8    0.16712      0.00000     0.82946    0.00341     0.83288
      C    9   -0.17158      1.99912     4.15791    0.01456     6.17158
      H   10    0.15730      0.00000     0.83944    0.00327     0.84270
      C   11   -0.17536      1.99911     4.16181    0.01444     6.17536
      H   12    0.16422      0.00000     0.83285    0.00293     0.83578
      C   13   -0.15921      1.99896     4.14246    0.01779     6.15921
      H   14    0.19008      0.00000     0.80555    0.00437     0.80992
      S   15    0.30780      9.99879     5.65793    0.03547    15.69220
      N   16   -0.57811      1.99925     5.56234    0.01653     7.57811
     Cl   17   -0.05687      9.99958     7.04070    0.01660    17.05687
      C   18   -0.05100      1.99875     4.02903    0.02322     6.05100
      C   19   -0.20389      1.99884     4.18663    0.01842     6.20389
      H   20    0.18595      0.00000     0.81055    0.00350     0.81405
      C   21   -0.21536      1.99880     4.19520    0.02137     6.21536
      C   22    0.14902      1.99876     3.82719    0.02503     5.85098
      C   23   -0.16554      1.99900     4.15069    0.01585     6.16554
      H   24    0.18340      0.00000     0.81307    0.00353     0.81660
      C   25   -0.21401      1.99894     4.19844    0.01663     6.21401
      H   26    0.17615      0.00000     0.82017    0.00368     0.82385
      C   27    0.32123      1.99924     3.63414    0.04539     5.67877
      O   28   -0.97456      1.99976     6.96612    0.00868     8.97456
 =======================================================================
   * Total *   -1.00000     63.98062   101.36904    0.65034   166.00000

 ******   18 imaginary frequencies (negative Signs) ******

                      1                      2                      3
                      A                      A                      A
 Frequencies --  -1468.7564             -1426.5134             -1375.3287
 Red. masses --      1.0809                 1.0679                 1.0467
 Frc consts  --      1.3739                 1.2803                 1.1665
 IR Inten    --     60.1758                38.8179                 5.6720

                      4                      5                      6
                      A                      A                      A
 Frequencies --  -1373.1699             -1298.6215             -1258.1288
 Red. masses --      1.0512                 1.0298                 1.0380
 Frc consts  --      1.1678                 1.0232                 0.9680
 IR Inten    --      2.1679                 0.1022                 0.1391

                      7                      8                      9
                      A                      A                      A
 Frequencies --  -1233.6285             -1169.7852              -967.5944
 Red. masses --      1.0196                 1.0398                 1.0856
 Frc consts  --      0.9142                 0.8383                 0.5988
 IR Inten    --      0.2188                 0.1108                 0.6869

                     10                     11                     12
                      A                      A                      A
 Frequencies --   -961.1567              -921.1379              -881.0002
 Red. masses --      1.0830                 1.0614                 1.1271
 Frc consts  --      0.5895                 0.5306                 0.5154
 IR Inten    --      5.4094                 3.1548                 1.3154

                     13                     14                     15
                      A                      A                      A
 Frequencies --   -821.4462              -800.9486              -744.1582
 Red. masses --      1.0690                 1.1106                 1.1229
 Frc consts  --      0.4250                 0.4198                 0.3664
 IR Inten    --      5.4375                13.4235                 6.9393

                     16                     17                     18
                      A                      A                      A
 Frequencies --   -682.0683               -63.1362               -26.0039
 Red. masses --      1.0594                15.1543                11.1169
 Frc consts  --      0.2904                 0.0356                 0.0044
 IR Inten    --     24.6642                 0.9351                 2.5368

                     19                     20                     21
                      A                      A                      A
 Frequencies --     55.7952                71.1251               107.1389
 Red. masses --     14.9405                11.6323                11.5489
 Frc consts  --      0.0274                 0.0347                 0.0781
 IR Inten    --      0.8220                 0.8047                 3.6676

                     22                     23                     24
                      A                      A                      A
 Frequencies --    178.8861               186.8948               196.2392
 Red. masses --     10.5073                13.0163                11.0851
 Frc consts  --      0.1981                 0.2679                 0.2515
 IR Inten    --      0.2029                 0.7998                 3.1525

                     25                     26                     27
                      A                      A                      A
 Frequencies --    239.0621               241.4297               282.7631
 Red. masses --     11.9185                11.4813                12.0329
 Frc consts  --      0.4013                 0.3943                 0.5668
 IR Inten    --      0.1722                 0.2654                 5.7658

                     28                     29                     30
                      A                      A                      A
 Frequencies --    311.9923               332.7406               336.1808
 Red. masses --     17.0817                10.4343                13.8176
 Frc consts  --      0.9796                 0.6807                 0.9201
 IR Inten    --      2.6650                 2.3552                 3.2808

                     31                     32                     33
                      A                      A                      A
 Frequencies --    399.3438               433.4085               487.6134
 Red. masses --     11.4337                16.0550                11.0223
 Frc consts  --      1.0743                 1.7769                 1.5441
 IR Inten    --      4.1715                 9.8675                 4.4854

                     34                     35                     36
                      A                      A                      A
 Frequencies --    494.7449               517.8978               545.5178
 Red. masses --     10.6883                14.8752                10.7684
 Frc consts  --      1.5414                 2.3507                 1.8881
 IR Inten    --      0.5474                54.7711                 0.0395

                     37                     38                     39
                      A                      A                      A
 Frequencies --    579.6625               605.3320               608.4853
 Red. masses --      7.6701                10.9580                12.8055
 Frc consts  --      1.5185                 2.3658                 2.7935
 IR Inten    --     12.4263                 2.9635                83.3841

                     40                     41                     42
                      A                      A                      A
 Frequencies --    618.4516               622.5868               638.2933
 Red. masses --     12.5206                12.6544                11.9314
 Frc consts  --      2.8215                 2.8900                 2.8641
 IR Inten    --    165.6051                76.9164                36.8126

                     43                     44                     45
                      A                      A                      A
 Frequencies --    693.7073               739.0534               745.3260
 Red. masses --     12.1550                 7.4115                 4.0212
 Frc consts  --      3.4463                 2.3851                 1.3161
 IR Inten    --     17.8428                 4.8466                 1.2776

                     46                     47                     48
                      A                      A                      A
 Frequencies --    774.1532               788.1279               794.8941
 Red. masses --      9.5206                11.0242                10.1212
 Frc consts  --      3.3618                 4.0345                 3.7679
 IR Inten    --     17.1124                 3.7161                10.8129

                     49                     50                     51
                      A                      A                      A
 Frequencies --    835.0914               850.2238               933.4353
 Red. masses --      4.6459                 9.2806                 7.8859
 Frc consts  --      1.9089                 3.9527                 4.0483
 IR Inten    --      9.6110               118.7926                25.8945

                     52                     53                     54
                      A                      A                      A
 Frequencies --   1021.4811              1055.8001              1148.6576
 Red. masses --     11.5684                 6.8412                 8.9262
 Frc consts  --      7.1119                 4.4931                 6.9391
 IR Inten    --    150.1302                25.8444                32.6660

                     55                     56                     57
                      A                      A                      A
 Frequencies --   1154.5437              1241.2299              1267.9544
 Red. masses --      8.6191                 9.7841                14.4857
 Frc consts  --      6.7692                 8.8813                13.7213
 IR Inten    --      5.7876               157.4527               104.2879

                     58                     59                     60
                      A                      A                      A
 Frequencies --   1307.8831              1346.2020              1402.1616
 Red. masses --     15.4685                 8.9354                11.0804
 Frc consts  --     15.5897                 9.5408                12.8352
 IR Inten    --    542.1300                26.0949               514.2871

                     61                     62                     63
                      A                      A                      A
 Frequencies --   1439.8416              1459.6880              1475.1071
 Red. masses --      9.6061                 9.1111                16.3045
 Frc consts  --     11.7334                11.4378                20.9028
 IR Inten    --    178.3100                33.3487               115.8709

                     64                     65                     66
                      A                      A                      A
 Frequencies --   1484.9366              1512.5289              1525.0572
 Red. masses --      9.9945                11.8308                 9.3394
 Frc consts  --     12.9845                15.9467                12.7980
 IR Inten    --    162.5808              1505.2323                 2.1300

                     67                     68                     69
                      A                      A                      A
 Frequencies --   1640.9157              1666.7260              1721.8290
 Red. masses --     11.1990                10.1199                10.6758
 Frc consts  --     17.7666                16.5636                18.6480
 IR Inten    --     21.7462                 2.4986                25.2328

                     70                     71                     72
                      A                      A                      A
 Frequencies --   1797.2029              5010.5699              5021.4806
 Red. masses --     10.1766                 1.0870                 1.0883
 Frc consts  --     19.3663                16.0788                16.1681
 IR Inten    --      4.8806                 1.6934                 1.3224

                     73                     74                     75
                      A                      A                      A
 Frequencies --   5024.6400              5035.7115              5036.9876
 Red. masses --      1.0884                 1.0927                 1.0879
 Frc consts  --     16.1897                16.3258                16.2628
 IR Inten    --      1.6958                 4.5988                 0.1763

                     76                     77                     78
                      A                      A                      A
 Frequencies --   5049.0524              5052.8647              5059.8203
 Red. masses --      1.0911                 1.0908                 1.0898
 Frc consts  --     16.3876                16.4090                16.4383
 IR Inten    --      0.4771                 1.9330                 1.1399

 - Thermochemistry -
 -------------------
 Temperature   298.150 Kelvin.  Pressure   1.00000 Atm.
 Atom     1 has atomic number 16 and mass  31.97207

 Molecular mass:   322.97157 amu.
 Principal axes and moments of inertia in atomic units:
                           1         2         3
     Eigenvalues --  3079.75484********************
           X            0.99989  -0.01367   0.00499
           Y            0.01362   0.99985   0.01105
           Z           -0.00514  -0.01098   0.99993
 This molecule is an asymmetric top.
 Rotational symmetry number  1.
 Warning -- assumption of classical behavior for rotation
           may cause significant error
 Rotational temperatures (Kelvin)      0.02812     0.00586     0.00560
 Rotational constants (GHZ):           0.58600     0.12216     0.11660
   18 imaginary frequencies ignored.
 Zero-point vibrational energy     497685.2 (Joules/Mol)
                                  118.94962 (Kcal/Mol)
 Warning -- explicit consideration of  22 degrees of freedom as
           vibrations may cause significant error
 Vibrational temperatures:     80.28   102.33   154.15   257.38   268.90
          (Kelvin)            282.34   343.96   347.36   406.83   448.89
                              478.74   483.69   574.57   623.58   701.57
                              711.83   745.14   784.88   834.01   870.94
                              875.47   889.81   895.76   918.36   998.09
                             1063.33  1072.36  1113.83  1133.94  1143.68
                             1201.51  1223.28  1343.01  1469.68  1519.06
                             1652.66  1661.13  1785.85  1824.30  1881.75
                             1936.88  2017.40  2071.61  2100.17  2122.35
                             2136.49  2176.19  2194.22  2360.91  2398.05
                             2477.33  2585.77  7209.09  7224.79  7229.34
                             7245.27  7247.10  7264.46  7269.95  7279.95

 Zero-point correction=                           0.189558 (Hartree/Particle)
 Thermal correction to Energy=                    0.202387
 Thermal correction to Enthalpy=                  0.203332
 Thermal correction to Gibbs Free Energy=         0.148569
 Sum of electronic and zero-point Energies=          -2014.156307
 Sum of electronic and thermal Energies=             -2014.143478
 Sum of electronic and thermal Enthalpies=           -2014.142534
 Sum of electronic and thermal Free Energies=        -2014.197296

                     E (Thermal)             CV                S
                      KCal/Mol        Cal/Mol-Kelvin    Cal/Mol-Kelvin
 Total                  127.000             49.840            115.257
 Electronic               0.000              0.000              0.000
 Translational            0.889              2.981             43.213
 Rotational               0.889              2.981             34.909
 Vibrational            125.223             43.878             37.136
 Vibration     1          0.596              1.975              4.601
 Vibration     2          0.598              1.968              4.122
 Vibration     3          0.606              1.944              3.320
 Vibration     4          0.629              1.868              2.340
 Vibration     5          0.632              1.858              2.258
 Vibration     6          0.636              1.845              2.168
 Vibration     7          0.657              1.781              1.810
 Vibration     8          0.658              1.777              1.792
 Vibration     9          0.682              1.706              1.517
 Vibration    10          0.700              1.651              1.352
 Vibration    11          0.715              1.610              1.247
 Vibration    12          0.717              1.603              1.230
 Vibration    13          0.765              1.472              0.965
 Vibration    14          0.794              1.397              0.848
 Vibration    15          0.844              1.278              0.690
 Vibration    16          0.850              1.262              0.671
 Vibration    17          0.873              1.210              0.615
 Vibration    18          0.901              1.149              0.554
 Vibration    19          0.936              1.075              0.486
 Vibration    20          0.964              1.020              0.441
 Vibration    21          0.967              1.014              0.435
 Vibration    22          0.978              0.993              0.419

 Normal termination of Gaussian 16 at Mon Mar  6 11:01:28 2023.
