 Gaussian 16, Revision C.01,
 Gaussian 16:  ES64L-G16RevC.01  3-Jul-2019

 ----------------------------------------------------------------------
 #p pop=(regular,nbo,savenbos) freq=noraman def2svp empiricaldispersion
 =gd3bj output=wfx pbe1pbe
 ----------------------------------------------------------------------

 ----------------------------------------
 ESACAC_Complex_3_Ligand_3_ON_Cu_oriented
 ----------------------------------------
 Symbolic Z-matrix:
 Charge = -1 Multiplicity = 1

                         Standard orientation:
 ---------------------------------------------------------------------
 Center     Atomic      Atomic             Coordinates (Angstroms)
 Number     Number       Type             X           Y           Z
 ---------------------------------------------------------------------
      1         16           0        2.050424   -1.738747    0.164763
      2          8           0        2.923214   -2.716040   -0.430008
      3          8           0        1.679991   -2.000512    1.555347
      4          7           0        0.822008   -1.528960   -0.810107
      5          6           0        2.931768   -0.214143    0.137919
      6          6           0        3.318952    0.416930    1.312628
      7          1           0        3.047799    0.085972    2.139372
      8          6           0        4.113600    1.548069    1.234302
      9          1           0        4.368302    1.979394    2.017889
     10          6           0        4.126415    1.410306   -1.140600
     11          6           0        3.325363    0.282664   -1.085899
     12          1           0        3.054316   -0.136398   -1.869000
     13         16           0       -1.375630   -0.516896   -1.746589
     14          7           0       -0.925202   -0.886895    0.786277
     15         17           0       -6.287057    1.381980   -0.117968
     16          6           0       -4.721849    0.690907    0.182524
     17          6           0       -4.322551    0.418104    1.491138
     18          6           0       -3.073678   -0.069997    1.738936
     19          6           0       -2.209446   -0.364008    0.675257
     20          6           0       -2.630793   -0.100487   -0.619183
     21          6           0       -3.898723    0.423101   -0.889581
     22          1           0       -4.177792    0.583537   -1.761734
     23          6           0       -0.361525   -1.050208   -0.413653
     24          6           0        4.545411    2.057563    0.005078
     25          6           0        5.504359    3.243054   -0.068807
     26          1           0        5.682027    3.454267   -0.987919
     27          1           0        6.327288    3.017875    0.373062
     28          1           0        5.107074    4.003544    0.362789
     29          1           0       -2.793752   -0.207354    2.616276
     30          1           0        4.390351    1.738824   -1.969424
     31          1           0       -4.909437    0.569214    2.197104
 ---------------------------------------------------------------------

 SCF Done:  E(RPBE1PBE) =  -2053.58128669     A.U. after   16 cycles

 The electronic state is 1-A.
 Alpha  occ. eigenvalues -- -101.58264 -89.06917 -88.90000 -19.02875 -19.02498
 Alpha  occ. eigenvalues --  -14.23862 -14.22723 -10.19786 -10.18076 -10.15169
 Alpha  occ. eigenvalues --  -10.14909 -10.14852 -10.13618 -10.12881 -10.12523
 Alpha  occ. eigenvalues --  -10.12453 -10.12358 -10.12280 -10.12105 -10.11885
 Alpha  occ. eigenvalues --  -10.11370  -9.43481  -8.03691  -7.90292  -7.17584
 Alpha  occ. eigenvalues --   -7.16639  -7.16635  -5.97875  -5.97811  -5.97772
 Alpha  occ. eigenvalues --   -5.84439  -5.84081  -5.83654  -0.98214  -0.85827
 Alpha  occ. eigenvalues --   -0.84874  -0.81146  -0.79346  -0.77792  -0.73534
 Alpha  occ. eigenvalues --   -0.71958  -0.70461  -0.68551  -0.65180  -0.64582
 Alpha  occ. eigenvalues --   -0.62504  -0.56217  -0.55370  -0.53579  -0.51787
 Alpha  occ. eigenvalues --   -0.50022  -0.47475  -0.44017  -0.41191  -0.40490
 Alpha  occ. eigenvalues --   -0.40302  -0.39360  -0.38451  -0.37766  -0.36782
 Alpha  occ. eigenvalues --   -0.36127  -0.34839  -0.34511  -0.33286  -0.32661
 Alpha  occ. eigenvalues --   -0.32285  -0.30996  -0.29588  -0.29069  -0.28575
 Alpha  occ. eigenvalues --   -0.27843  -0.27300  -0.24593  -0.23675  -0.22549
 Alpha  occ. eigenvalues --   -0.21383  -0.19928  -0.18940  -0.18474  -0.17339
 Alpha  occ. eigenvalues --   -0.17067  -0.15451  -0.15064  -0.14539  -0.13170
 Alpha  occ. eigenvalues --   -0.11722  -0.08633
 Alpha virt. eigenvalues --    0.08422   0.09177   0.09750   0.10986   0.15004
 Alpha virt. eigenvalues --    0.16459   0.16884   0.17946   0.20638   0.21601
 Alpha virt. eigenvalues --    0.22480   0.22650   0.24573   0.25369   0.26092

 Mulliken charges:
               1
     1  S    0.886358
     2  O   -0.508000
     3  O   -0.505139
     4  N   -0.433083
     5  C   -0.085531
     6  C    0.133294
     7  H   -0.108828
     8  C    0.063193
     9  H   -0.129121
    10  C    0.058979
    11  C    0.163406
    12  H   -0.112216
    13  S    0.030618
    14  N   -0.216221
    15  Cl  -0.162710
    16  C    0.025530
    17  C    0.111309
    18  C    0.064421
    19  C    0.101007
    20  C   -0.074787
    21  C    0.080336
    22  H   -0.143240
    23  C    0.083103
    24  C   -0.141994
    25  C    0.275212
    26  H   -0.043724
    27  H   -0.012065
    28  H   -0.016022
    29  H   -0.124379
    30  H   -0.128642
    31  H   -0.131065
 Sum of Mulliken charges =  -1.00000

 Dipole moment (field-independent basis, Debye):
    X=              0.3175    Y=              7.5222    Z=             -0.7660  Tot=              7.5678
 Quadrupole moment (field-independent basis, Debye-Ang):
   XX=           -185.1701   YY=           -163.8293   ZZ=           -144.7057
   XY=             24.0162   XZ=             -1.2165   YZ=              1.8195

  Exact polarizability:     306.855      -8.992     156.265     -11.812       1.281     176.644
 Approx polarizability:     390.112     -34.520     245.815     -25.168       4.416     340.049

 Summary of Natural Population Analysis:

                                       Natural Population
                Natural  -----------------------------------------------
    Atom  No    Charge         Core      Valence    Rydberg      Total
 -----------------------------------------------------------------------
      S    1    2.31314      9.99793     3.45367    0.23526    13.68686
      O    2   -0.97005      1.99977     6.96143    0.00885     8.97005
      O    3   -0.97474      1.99978     6.96723    0.00773     8.97474
      N    4   -0.96087      1.99915     5.94241    0.01931     7.96087
      C    5   -0.28122      1.99886     4.25423    0.02812     6.28122
      C    6   -0.14205      1.99899     4.12489    0.01816     6.14205
      H    7    0.19195      0.00000     0.80395    0.00411     0.80805
      C    8   -0.18809      1.99899     4.17392    0.01518     6.18809
      H    9    0.16403      0.00000     0.83280    0.00318     0.83597
      C   10   -0.19305      1.99897     4.17907    0.01501     6.19305
      C   11   -0.13301      1.99898     4.11652    0.01751     6.13301
      H   12    0.18576      0.00000     0.81006    0.00417     0.81424
      S   13    0.29367      9.99881     5.67219    0.03533    15.70633
      N   14   -0.58248      1.99919     5.56665    0.01663     7.58248
     Cl   15   -0.06056      9.99959     7.04466    0.01631    17.06056
      C   16   -0.05032      1.99876     4.02852    0.02303     6.05032
      C   17   -0.21595      1.99894     4.20047    0.01654     6.21595
      C   18   -0.17203      1.99900     4.15715    0.01588     6.17203
      C   19    0.15713      1.99878     3.81856    0.02553     5.84287
      C   20   -0.22059      1.99885     4.20069    0.02106     6.22059
      C   21   -0.20720      1.99884     4.19009    0.01827     6.20720
      H   22    0.18558      0.00000     0.81089    0.00352     0.81442
      C   23    0.33627      1.99924     3.61813    0.04636     5.66373
      C   24   -0.01670      1.99904     4.00297    0.01469     6.01670
      C   25   -0.55407      1.99914     4.54599    0.00894     6.55407
      H   26    0.18642      0.00000     0.81096    0.00261     0.81358
      H   27    0.19254      0.00000     0.80481    0.00265     0.80746
      H   28    0.19188      0.00000     0.80543    0.00268     0.80812
      H   29    0.18261      0.00000     0.81371    0.00368     0.81739
      H   30    0.16501      0.00000     0.83178    0.00321     0.83499
      H   31    0.17698      0.00000     0.81936    0.00366     0.82302
 =======================================================================
   * Total *   -1.00000     65.97961   107.36320    0.65719   174.00000

 ******   18 imaginary frequencies (negative Signs) ******

                      1                      2                      3
                      A                      A                      A
 Frequencies --  -1429.8068             -1418.1803             -1406.5286
 Red. masses --      1.0657                 1.0657                 1.0112
 Frc consts  --      1.2837                 1.2628                 1.1786
 IR Inten    --     43.3798                37.1438                 3.7278

                      4                      5                      6
                      A                      A                      A
 Frequencies --  -1382.3776             -1362.7003             -1258.4312
 Red. masses --      1.0486                 1.0501                 1.0260
 Frc consts  --      1.1806                 1.1489                 0.9573
 IR Inten    --      1.1545                 8.3905                 0.3989

                      7                      8                      9
                      A                      A                      A
 Frequencies --  -1238.6982             -1228.6735             -1025.5778
 Red. masses --      1.0368                 1.0378                 1.0550
 Frc consts  --      0.9373                 0.9231                 0.6538
 IR Inten    --      0.0836                 0.1913                 6.3924

                     10                     11                     12
                      A                      A                      A
 Frequencies --   -999.0838              -927.0049              -915.9749
 Red. masses --      1.0483                 1.0894                 1.0981
 Frc consts  --      0.6165                 0.5516                 0.5428
 IR Inten    --      6.1492                 5.6327                11.4809

                     13                     14                     15
                      A                      A                      A
 Frequencies --   -906.6717              -901.2380              -821.5048
 Red. masses --      1.0666                 1.0778                 1.1098
 Frc consts  --      0.5166                 0.5158                 0.4413
 IR Inten    --      2.7018                15.2943                 0.2277

                     16                     17                     18
                      A                      A                      A
 Frequencies --   -802.5661              -727.3443               -20.0861
 Red. masses --      1.0701                 1.0378                10.9507
 Frc consts  --      0.4061                 0.3235                 0.0026
 IR Inten    --      4.9545                18.0921                 2.4873

                     19                     20                     21
                      A                      A                      A
 Frequencies --     42.6527                69.4833                87.6026
 Red. masses --     14.7291                12.3088                13.9247
 Frc consts  --      0.0158                 0.0350                 0.0630
 IR Inten    --      0.9753                 0.3405                 0.3072

                     22                     23                     24
                      A                      A                      A
 Frequencies --    118.6173               179.6447               190.5652
 Red. masses --      9.4329                10.6421                13.7850
 Frc consts  --      0.0782                 0.2024                 0.2949
 IR Inten    --      2.8745                 0.3529                 1.0110

                     25                     26                     27
                      A                      A                      A
 Frequencies --    191.6778               242.7400               249.0882
 Red. masses --      9.2421                11.1124                10.0282
 Frc consts  --      0.2001                 0.3858                 0.3666
 IR Inten    --      0.3285                 0.5700                 0.5703

                     28                     29                     30
                      A                      A                      A
 Frequencies --    264.2436               305.0643               308.2626
 Red. masses --     10.6636                10.4017                15.7128
 Frc consts  --      0.4387                 0.5703                 0.8797
 IR Inten    --      6.6610                 2.3236                 1.2064

                     31                     32                     33
                      A                      A                      A
 Frequencies --    316.3314               338.9778               387.4936
 Red. masses --     11.1646                 1.1912                10.6250
 Frc consts  --      0.6582                 0.0806                 0.9400
 IR Inten    --      5.2875                 3.9466                 5.0276

                     34                     35                     36
                      A                      A                      A
 Frequencies --    399.4756               430.4244               460.5505
 Red. masses --      9.8246                12.4919                10.4879
 Frc consts  --      0.9237                 1.3636                 1.3107
 IR Inten    --      2.3287                 5.9252                 4.4269

                     37                     38                     39
                      A                      A                      A
 Frequencies --    500.7261               535.3456               543.3074
 Red. masses --     10.2538                10.3763                10.8458
 Frc consts  --      1.5147                 1.7521                 1.8863
 IR Inten    --      0.1661                 1.0084                 0.0396

                     40                     41                     42
                      A                      A                      A
 Frequencies --    549.8149               597.7937               605.0427
 Red. masses --     14.0076                 8.7421                10.2991
 Frc consts  --      2.4949                 1.8406                 2.2214
 IR Inten    --    101.1639               175.2049                 9.6620

                     43                     44                     45
                      A                      A                      A
 Frequencies --    612.2118               634.7495               639.0393
 Red. masses --     12.6281                 8.3824                10.7475
 Frc consts  --      2.7886                 1.9899                 2.5859
 IR Inten    --     19.9731                 4.7504                 7.0584

                     46                     47                     48
                      A                      A                      A
 Frequencies --    683.2054               695.4168               701.2163
 Red. masses --     10.1038                 7.1820                 8.3209
 Frc consts  --      2.7787                 2.0464                 2.4106
 IR Inten    --      8.3690                86.6610                27.6144

                     49                     50                     51
                      A                      A                      A
 Frequencies --    734.1533               736.3107               790.5141
 Red. masses --      5.1391                 6.4726                11.0529
 Frc consts  --      1.6320                 2.0675                 4.0696
 IR Inten    --      0.7956                12.6812                 4.6977

                     52                     53                     54
                      A                      A                      A
 Frequencies --    798.1079               815.4486               846.5308
 Red. masses --     10.1559                 5.4659                 9.5594
 Frc consts  --      3.8114                 2.1414                 4.0361
 IR Inten    --     16.7896                17.8682               150.8405

                     55                     56                     57
                      A                      A                      A
 Frequencies --    893.4956               932.5678               982.6140
 Red. masses --      4.9186                 8.1047                 1.0622
 Frc consts  --      2.3136                 4.1529                 0.6043
 IR Inten    --      1.4886                63.3772                10.2182

                     58                     59                     60
                      A                      A                      A
 Frequencies --    994.9862              1009.6185              1106.3575
 Red. masses --     10.6384                 1.1513                 7.7744
 Frc consts  --      6.2053                 0.6914                 5.6067
 IR Inten    --    178.5192                 8.4959                15.4921

                     61                     62                     63
                      A                      A                      A
 Frequencies --   1156.5465              1201.6363              1229.7253
 Red. masses --     10.2142                13.3329                 8.9699
 Frc consts  --      8.0497                11.3429                 7.9920
 IR Inten    --     19.2194               155.8231                48.5807

                     64                     65                     66
                      A                      A                      A
 Frequencies --   1255.6068              1288.5644              1385.2413
 Red. masses --     11.6434                11.3945                 8.8458
 Frc consts  --     10.8153                11.1470                10.0009
 IR Inten    --    399.9560               120.7780                10.2159

                     67                     68                     69
                      A                      A                      A
 Frequencies --   1397.7659              1410.5398              1436.2552
 Red. masses --     18.6639                11.1280                 8.9556
 Frc consts  --     21.4844                13.0448                10.8845
 IR Inten    --    349.2154               231.3042                31.9817

                     70                     71                     72
                      A                      A                      A
 Frequencies --   1444.9293              1456.9832              1469.9339
 Red. masses --      9.8651                 8.9426                 9.8572
 Frc consts  --     12.1351                11.1846                12.5488
 IR Inten    --    235.9812                 2.6563                30.5522

                     73                     74                     75
                      A                      A                      A
 Frequencies --   1556.4759              1656.2288              1659.1879
 Red. masses --     12.2472                10.9446                10.9910
 Frc consts  --     17.4813                17.6884                17.8271
 IR Inten    --   1762.7858                 4.9993                74.6536

                     76                     77                     78
                      A                      A                      A
 Frequencies --   1678.0701              1691.7798              4466.1108
 Red. masses --     10.5946                 9.8638                 1.0321
 Frc consts  --     17.5775                16.6334                12.1289
 IR Inten    --     40.6099                 3.6662                13.5447

                     79                     80                     81
                      A                      A                      A
 Frequencies --   4669.0182              4679.6012              5019.9253
 Red. masses --      1.1067                 1.1069                 1.0875
 Frc consts  --     14.2139                14.2817                16.1470
 IR Inten    --      1.3228                 2.6593                 0.1499

                     82                     83                     84
                      A                      A                      A
 Frequencies --   5024.9321              5029.5490              5032.3001
 Red. masses --      1.0876                 1.0885                 1.0913
 Frc consts  --     16.1800                16.2231                16.2827
 IR Inten    --      3.2651                 4.0441                 0.0581

                     85                     86                     87
                      A                      A                      A
 Frequencies --   5035.5217              5041.4194              5059.7345
 Red. masses --      1.0909                 1.0896                 1.0901
 Frc consts  --     16.2974                16.3166                16.4422
 IR Inten    --      5.0696                 0.9879                 2.6438

 - Thermochemistry -
 -------------------
 Temperature   298.150 Kelvin.  Pressure   1.00000 Atm.
 Atom     1 has atomic number 16 and mass  31.97207

 Molecular mass:   336.98722 amu.
 Principal axes and moments of inertia in atomic units:
                           1         2         3
     Eigenvalues --  3725.91915********************
           X            0.99975   0.02203  -0.00290
           Y           -0.02203   0.99976  -0.00023
           Z            0.00289   0.00030   1.00000
 This molecule is an asymmetric top.
 Rotational symmetry number  1.
 Warning -- assumption of classical behavior for rotation
           may cause significant error
 Rotational temperatures (Kelvin)      0.02325     0.00522     0.00485
 Rotational constants (GHZ):           0.48437     0.10871     0.10102
   18 imaginary frequencies ignored.
 Zero-point vibrational energy     573938.7 (Joules/Mol)
                                  137.17464 (Kcal/Mol)
 Warning -- explicit consideration of  25 degrees of freedom as
           vibrations may cause significant error
 Vibrational temperatures:     61.37    99.97   126.04   170.66   258.47
          (Kelvin)            274.18   275.78   349.25   358.38   380.19
                              438.92   443.52   455.13   487.71   557.52
                              574.76   619.28   662.63   720.43   770.24
                              781.70   791.06   860.09   870.52   880.84
                              913.26   919.44   982.98  1000.55  1008.89
                             1056.28  1059.39  1137.37  1148.30  1173.25
                             1217.97  1285.54  1341.76  1413.76  1431.56
                             1452.62  1591.80  1664.01  1728.89  1769.30
                             1806.54  1853.96  1993.05  2011.07  2029.45
                             2066.45  2078.93  2096.27  2114.91  2239.42
                             2382.94  2387.20  2414.37  2434.09  6425.74
                             6717.68  6732.90  7222.55  7229.76  7236.40
                             7240.36  7244.99  7253.48  7279.83

 Zero-point correction=                           0.218602 (Hartree/Particle)
 Thermal correction to Energy=                    0.233278
 Thermal correction to Enthalpy=                  0.234222
 Thermal correction to Gibbs Free Energy=         0.175636
 Sum of electronic and zero-point Energies=          -2053.362685
 Sum of electronic and thermal Energies=             -2053.348009
 Sum of electronic and thermal Enthalpies=           -2053.347064
 Sum of electronic and thermal Free Energies=        -2053.405651

                     E (Thermal)             CV                S
                      KCal/Mol        Cal/Mol-Kelvin    Cal/Mol-Kelvin
 Total                  146.384             57.422            123.306
 Electronic               0.000              0.000              0.000
 Translational            0.889              2.981             43.339
 Rotational               0.889              2.981             35.356
 Vibrational            144.607             51.461             44.610
 Vibration     1          0.595              1.980              5.132
 Vibration     2          0.598              1.969              4.168
 Vibration     3          0.601              1.958              3.713
 Vibration     4          0.609              1.934              3.123
 Vibration     5          0.629              1.867              2.332
 Vibration     6          0.634              1.853              2.222
 Vibration     7          0.634              1.851              2.212
 Vibration     8          0.659              1.775              1.783
 Vibration     9          0.662              1.764              1.737
 Vibration    10          0.671              1.738              1.634
 Vibration    11          0.696              1.664              1.389
 Vibration    12          0.698              1.658              1.372
 Vibration    13          0.703              1.642              1.329
 Vibration    14          0.719              1.598              1.217
 Vibration    15          0.756              1.497              1.010
 Vibration    16          0.766              1.471              0.965
 Vibration    17          0.792              1.404              0.857
 Vibration    18          0.818              1.338              0.765
 Vibration    19          0.856              1.248              0.656
 Vibration    20          0.890              1.172              0.575
 Vibration    21          0.898              1.154              0.558
 Vibration    22          0.905              1.140              0.545
 Vibration    23          0.956              1.036              0.453
 Vibration    24          0.964              1.021              0.441
 Vibration    25          0.971              1.006              0.429

 Normal termination of Gaussian 16 at Mon Mar  6 11:10:38 2023.
