 Gaussian 16, Revision C.01,
 Gaussian 16:  ES64L-G16RevC.01  3-Jul-2019

 ----------------------------------------------------------------------
 #p pop=(regular,nbo,savenbos) freq=noraman def2svp empiricaldispersion
 =gd3bj output=wfx pbe1pbe
 ----------------------------------------------------------------------

 ----------------------------------------
 EVOBIA_Complex_2_Ligand_0_NN_Cu_oriented
 ----------------------------------------
 Symbolic Z-matrix:
 Charge =  0 Multiplicity = 1

                         Standard orientation:
 ---------------------------------------------------------------------
 Center     Atomic      Atomic             Coordinates (Angstroms)
 Number     Number       Type             X           Y           Z
 ---------------------------------------------------------------------
      1          6           0       -1.466453    1.957946   -0.502762
      2          6           0       -2.102240    2.342181   -1.596462
      3          1           0       -2.788660    1.819132   -1.944229
      4          1           0       -1.864189    3.136604   -2.017742
      5          6           0       -1.792881    0.704533    0.218013
      6          1           0       -1.273796    0.670594    1.049074
      7          6           0       -3.271008    0.311816    0.523475
      8          1           0       -3.543078    0.504792    1.433599
      9          1           0       -3.907070    0.675236   -0.111403
     10          6           0       -2.939131   -1.173699    0.281700
     11          6           0       -3.947761   -1.960383   -0.537823
     12          1           0       -4.283593   -1.408020   -1.247764
     13          6           0       -1.679798   -0.654381   -0.501690
     14          1           0       -1.945741   -0.518561   -1.435928
     15          6           0       -0.404491   -1.450066   -0.504868
     16          1           0       -0.581947   -2.331952   -0.867437
     17          6           0        1.459206    0.931818    0.307019
     18          6           0        1.082436    2.259436   -0.250464
     19          1           0        1.194204    2.216333   -1.213358
     20          1           0        1.718228    2.911481    0.082676
     21          6           0       -0.332973    2.797191    0.033783
     22          1           0       -0.441808    2.880355    0.994605
     23          1           0       -0.404330    3.687040   -0.345965
     24          7           0        1.434801    0.624417    1.538299
     25          8           0        1.051975    1.661226    2.378972
     26          6           0       -2.563720   -1.905611    1.566300
     27          1           0       -3.361190   -2.188802    2.018767
     28          1           0       -2.064428   -1.316071    2.137584
     29          1           0       -2.028070   -2.672775    1.353251
     30          6           0        1.924446   -0.206167   -0.608645
     31          6           0        0.692653   -0.784710   -1.327040
     32          1           0        1.011822   -1.437708   -1.971292
     33          7           0        2.548192   -1.272695    0.292593
     34          6           0        3.922814   -0.890352    0.686061
     35          1           0        4.269121   -1.536863    1.304347
     36          1           0        3.905899   -0.025421    1.103281
     37          6           0        2.678839   -2.608065   -0.379770
     38          1           0        3.132405   -2.500619   -1.218705
     39          1           0        1.805677   -2.975498   -0.534175
     40          1           0        3.180844   -3.202662    0.182548
     41          6           0        2.919864    0.304565   -1.664113
     42          1           0        3.691912    0.672494   -1.225490
     43          1           0       -0.096361   -1.560046    0.407071
     44          1           0       -3.521981   -2.736421   -0.911045
     45          1           0        4.481199   -0.859484   -0.093660
     46          1           0        2.500738    0.984837   -2.197321
     47          1           0        3.190605   -0.423218   -2.228467
     48          1           0        0.284757   -0.064661   -1.831971
     49          1           0        1.037648    1.225616    2.998842
     50          1           0       -4.674367   -2.233910    0.026006
 ---------------------------------------------------------------------

 SCF Done:  E(RPBE1PBE) =  -848.399728047     A.U. after   14 cycles

 The electronic state is 1-A.
 Alpha  occ. eigenvalues --  -19.22110 -14.41678 -14.36613 -10.26877 -10.25739
 Alpha  occ. eigenvalues --  -10.22328 -10.22261 -10.21214 -10.20511 -10.20358
 Alpha  occ. eigenvalues --  -10.20177 -10.19952 -10.19712 -10.19481 -10.18923
 Alpha  occ. eigenvalues --  -10.18688 -10.18375 -10.17752 -10.17108 -10.17089
 Alpha  occ. eigenvalues --   -1.14528  -0.93523  -0.89152  -0.88480  -0.83109
 Alpha  occ. eigenvalues --   -0.82044  -0.78772  -0.77356  -0.75372  -0.73881
 Alpha  occ. eigenvalues --   -0.72998  -0.70783  -0.68820  -0.67760  -0.65657
 Alpha  occ. eigenvalues --   -0.62687  -0.61636  -0.55633  -0.54697  -0.54272
 Alpha  occ. eigenvalues --   -0.53082  -0.52699  -0.49893  -0.49127  -0.48844
 Alpha  occ. eigenvalues --   -0.47990  -0.47683  -0.47283  -0.46008  -0.45709
 Alpha  occ. eigenvalues --   -0.45347  -0.45042  -0.44264  -0.43940  -0.42640
 Alpha  occ. eigenvalues --   -0.42072  -0.41664  -0.41491  -0.40761  -0.40238
 Alpha  occ. eigenvalues --   -0.39806  -0.39069  -0.38169  -0.37721  -0.36527
 Alpha  occ. eigenvalues --   -0.36101  -0.35789  -0.35199  -0.34396  -0.32985
 Alpha  occ. eigenvalues --   -0.31511  -0.29197  -0.28085  -0.27399  -0.26070
 Alpha  occ. eigenvalues --   -0.24296  -0.20695
 Alpha virt. eigenvalues --    0.01790   0.02375   0.07559   0.08354   0.09381
 Alpha virt. eigenvalues --    0.10031   0.11426   0.12208   0.12771   0.12893
 Alpha virt. eigenvalues --    0.13481   0.14201   0.14595   0.14836   0.15057

 Mulliken charges:
               1
     1  C   -0.228422
     2  C    0.135875
     3  H   -0.055737
     4  H   -0.058495
     5  C   -0.096101
     6  H   -0.061299
     7  C    0.485563
     8  H   -0.056638
     9  H   -0.061590
    10  C   -0.680488
    11  C    0.314709
    12  H   -0.044604
    13  C    0.023054
    14  H   -0.064747
    15  C    0.261808
    16  H   -0.036002
    17  C   -0.183411
    18  C    0.278871
    19  H   -0.054153
    20  H   -0.008985
    21  C    0.230966
    22  H   -0.008903
    23  H   -0.050427
    24  N   -0.060132
    25  O   -0.059481
    26  C    0.313377
    27  H   -0.034649
    28  H   -0.041866
    29  H   -0.026538
    30  C   -0.266230
    31  C    0.165259
    32  H   -0.042234
    33  N   -0.450067
    34  C    0.316723
    35  H   -0.030156
    36  H   -0.028977
    37  C    0.318252
    38  H   -0.057427
    39  H   -0.034164
    40  H   -0.027529
    41  C    0.308561
    42  H   -0.024402
    43  H   -0.030923
    44  H   -0.032878
    45  H   -0.055735
    46  H   -0.035670
    47  H   -0.031436
    48  H   -0.038891
    49  H    0.038019
    50  H   -0.031650
 Sum of Mulliken charges =  -0.00000

 Dipole moment (field-independent basis, Debye):
    X=              0.9497    Y=             -0.4738    Z=             -1.1943  Tot=              1.5978
 Quadrupole moment (field-independent basis, Debye-Ang):
   XX=           -118.6789   YY=           -120.4044   ZZ=           -119.5536
   XY=              1.1407   XZ=             -3.0923   YZ=              0.1663

  Exact polarizability:     182.612      -2.708     169.646       3.291      -5.221     157.503
 Approx polarizability:     224.418      -4.201     226.836       7.867      -7.179     251.033

 Summary of Natural Population Analysis:

                                       Natural Population
                Natural  -----------------------------------------------
    Atom  No    Charge         Core      Valence    Rydberg      Total
 -----------------------------------------------------------------------
      C    1    0.01741      1.99905     3.96302    0.02052     5.98259
      C    2   -0.35644      1.99905     4.34377    0.01362     6.35644
      H    3    0.15688      0.00000     0.84024    0.00287     0.84312
      H    4    0.15877      0.00000     0.83840    0.00283     0.84123
      C    5   -0.25129      1.99890     4.23058    0.02181     6.25129
      H    6    0.19906      0.00000     0.79354    0.00739     0.80094
      C    7   -0.33656      1.99908     4.31833    0.01916     6.33656
      H    8    0.18421      0.00000     0.81246    0.00333     0.81579
      H    9    0.18734      0.00000     0.80944    0.00321     0.81266
      C   10   -0.00748      1.99908     3.99108    0.01731     6.00748
      C   11   -0.55251      1.99913     4.54107    0.01231     6.55251
      H   12    0.18557      0.00000     0.81184    0.00259     0.81443
      C   13   -0.17186      1.99893     4.15223    0.02069     6.17186
      H   14    0.18528      0.00000     0.80967    0.00505     0.81472
      C   15   -0.38672      1.99904     4.37023    0.01745     6.38672
      H   16    0.19403      0.00000     0.80253    0.00344     0.80597
      C   17    0.24163      1.99904     3.71813    0.04120     5.75837
      C   18   -0.42252      1.99894     4.40737    0.01621     6.42252
      H   19    0.19848      0.00000     0.79777    0.00375     0.80152
      H   20    0.21963      0.00000     0.77635    0.00402     0.78037
      C   21   -0.36959      1.99894     4.35504    0.01561     6.36959
      H   22    0.20853      0.00000     0.78683    0.00464     0.79147
      H   23    0.19607      0.00000     0.80040    0.00352     0.80393
      N   24   -0.18692      1.99908     5.16411    0.02372     7.18692
      O   25   -0.49914      1.99960     6.47608    0.02346     8.49914
      C   26   -0.55769      1.99914     4.54570    0.01285     6.55769
      H   27    0.18894      0.00000     0.80819    0.00287     0.81106
      H   28    0.18904      0.00000     0.80855    0.00241     0.81096
      H   29    0.18926      0.00000     0.80810    0.00264     0.81074
      C   30    0.14956      1.99897     3.83163    0.01983     5.85044
      C   31   -0.37821      1.99896     4.36105    0.01820     6.37821
      H   32    0.19816      0.00000     0.79874    0.00310     0.80184
      N   33   -0.55074      1.99942     5.53669    0.01462     7.55074
      C   34   -0.31978      1.99912     4.30846    0.01220     6.31978
      H   35    0.18031      0.00000     0.81743    0.00226     0.81969
      H   36    0.18269      0.00000     0.81433    0.00299     0.81731
      C   37   -0.31632      1.99911     4.30595    0.01126     6.31632
      H   38    0.14950      0.00000     0.84581    0.00469     0.85050
      H   39    0.17455      0.00000     0.82279    0.00266     0.82545
      H   40    0.18148      0.00000     0.81631    0.00221     0.81852
      C   41   -0.56845      1.99913     4.55728    0.01204     6.56845
      H   42    0.19600      0.00000     0.80152    0.00248     0.80400
      H   43    0.20622      0.00000     0.78868    0.00509     0.79378
      H   44    0.18676      0.00000     0.81036    0.00288     0.81324
      H   45    0.14745      0.00000     0.84773    0.00482     0.85255
      H   46    0.19604      0.00000     0.80139    0.00257     0.80396
      H   47    0.19628      0.00000     0.80136    0.00236     0.80372
      H   48    0.19847      0.00000     0.79780    0.00373     0.80153
      H   49    0.40168      0.00000     0.59001    0.00831     0.59832
      H   50    0.18692      0.00000     0.81013    0.00295     0.81308
 =======================================================================
   * Total *   -0.00000     39.98171   113.54654    0.47175   154.00000

 ******   36 imaginary frequencies (negative Signs) ******

                      1                      2                      3
                      A                      A                      A
 Frequencies --  -2906.1762             -2397.4129             -1395.9579
 Red. masses --      1.0652                 1.1078                 1.0271
 Frc consts  --      5.3006                 3.7516                 1.1792
 IR Inten    --    114.4489               182.5717                 4.8554

                      4                      5                      6
                      A                      A                      A
 Frequencies --  -1391.1886             -1389.0395             -1383.4847
 Red. masses --      1.0085                 1.0091                 1.0498
 Frc consts  --      1.1500                 1.1471                 1.1838
 IR Inten    --      0.0336                 0.5309                18.9661

                      7                      8                      9
                      A                      A                      A
 Frequencies --  -1382.7489             -1381.3551             -1369.2039
 Red. masses --      1.0543                 1.0101                 1.0110
 Frc consts  --      1.1877                 1.1357                 1.1167
 IR Inten    --     19.8862                 0.0881                 0.1877

                     10                     11                     12
                      A                      A                      A
 Frequencies --  -1274.8350             -1127.0341             -1112.1322
 Red. masses --      1.0328                 1.0315                 1.0268
 Frc consts  --      0.9889                 0.7720                 0.7483
 IR Inten    --      0.3649                 3.8808                 8.6839

                     13                     14                     15
                      A                      A                      A
 Frequencies --  -1084.7565             -1070.3410             -1057.8169
 Red. masses --      1.0304                 1.0319                 1.0270
 Frc consts  --      0.7144                 0.6965                 0.6771
 IR Inten    --      5.5643                 1.7784                 3.9007

                     16                     17                     18
                      A                      A                      A
 Frequencies --  -1034.2416             -1005.5415             -1003.1069
 Red. masses --      1.0683                 1.0502                 1.0484
 Frc consts  --      0.6733                 0.6257                 0.6216
 IR Inten    --      6.3036                 4.1326                 5.4003

                     19                     20                     21
                      A                      A                      A
 Frequencies --   -991.6848              -987.9349              -981.3288
 Red. masses --      1.0446                 1.0246                 1.0403
 Frc consts  --      0.6053                 0.5892                 0.5902
 IR Inten    --      4.2706                 1.1877                 7.4243

                     22                     23                     24
                      A                      A                      A
 Frequencies --   -935.6686              -913.1234              -903.8901
 Red. masses --      1.0777                 1.0465                 1.0587
 Frc consts  --      0.5559                 0.5141                 0.5096
 IR Inten    --      7.7030                 3.4283                13.4160

                     25                     26                     27
                      A                      A                      A
 Frequencies --   -870.9829              -663.3774              -543.4503
 Red. masses --      1.0220                 1.1717                 1.1214
 Frc consts  --      0.4568                 0.3038                 0.1951
 IR Inten    --      1.1711                 0.9497                 0.9403

                     28                     29                     30
                      A                      A                      A
 Frequencies --   -511.4218              -482.9770              -444.1663
 Red. masses --      1.3180                 1.2743                 1.3540
 Frc consts  --      0.2031                 0.1751                 0.1574
 IR Inten    --      2.7099                 3.0178                 1.0453

                     31                     32                     33
                      A                      A                      A
 Frequencies --   -412.8427              -351.9532              -321.9201
 Red. masses --      1.2468                 1.2773                 1.7202
 Frc consts  --      0.1252                 0.0932                 0.1050
 IR Inten    --      2.8123                 4.4261                 0.1031

                     34                     35                     36
                      A                      A                      A
 Frequencies --   -277.0219              -213.7914              -129.5030
 Red. masses --      1.9230                 2.1355                 1.7560
 Frc consts  --      0.0869                 0.0575                 0.0174
 IR Inten    --      0.3532                 2.0247                 1.5087

                     37                     38                     39
                      A                      A                      A
 Frequencies --     58.7476                89.9568               155.8621
 Red. masses --      2.4956                 3.1447                 4.1320
 Frc consts  --      0.0051                 0.0150                 0.0591
 IR Inten    --      0.6442                 2.4329                 0.3034

                     40                     41                     42
                      A                      A                      A
 Frequencies --    185.7057               250.9014               266.4589
 Red. masses --      4.0937                 5.7348                 4.1631
 Frc consts  --      0.0832                 0.2127                 0.1742
 IR Inten    --      1.0342                 1.3180                 1.1245

                     43                     44                     45
                      A                      A                      A
 Frequencies --    295.6291               329.6204               342.8914
 Red. masses --      3.7911                 6.1263                 1.1736
 Frc consts  --      0.1952                 0.3922                 0.0813
 IR Inten    --      2.3921                 0.8375                21.3228

                     46                     47                     48
                      A                      A                      A
 Frequencies --    351.7637               368.3006               381.5115
 Red. masses --      3.0191                 2.3695                 1.4252
 Frc consts  --      0.2201                 0.1894                 0.1222
 IR Inten    --      4.8243                 7.5755                11.1134

                     49                     50                     51
                      A                      A                      A
 Frequencies --    391.0239               404.9648               414.5799
 Red. masses --      1.2573                 1.2360                 4.9775
 Frc consts  --      0.1133                 0.1194                 0.5041
 IR Inten    --     23.5901                11.3746                 1.4819

                     52                     53                     54
                      A                      A                      A
 Frequencies --    423.5488               448.5744               463.4130
 Red. masses --      2.4608                 3.7356                 1.8600
 Frc consts  --      0.2601                 0.4429                 0.2353
 IR Inten    --      0.5906                 0.4480                 0.2107

                     55                     56                     57
                      A                      A                      A
 Frequencies --    466.3154               482.9557               487.6554
 Red. masses --      2.7487                 2.6223                 3.2925
 Frc consts  --      0.3522                 0.3604                 0.4613
 IR Inten    --      0.7202                 1.2444                 2.4957

                     58                     59                     60
                      A                      A                      A
 Frequencies --    503.5415               533.9527               546.1119
 Red. masses --      2.8759                 3.1380                 1.5868
 Frc consts  --      0.4296                 0.5271                 0.2788
 IR Inten    --      7.7703                 0.9124                 0.4260

                     61                     62                     63
                      A                      A                      A
 Frequencies --    550.9169               580.2628               615.0748
 Red. masses --      3.0831                 2.7448                 4.0623
 Frc consts  --      0.5513                 0.5445                 0.9055
 IR Inten    --      1.3432                 2.4828                 2.1838

                     64                     65                     66
                      A                      A                      A
 Frequencies --    619.1741               649.7914               669.7451
 Red. masses --      2.3148                 3.7570                 2.9889
 Frc consts  --      0.5229                 0.9346                 0.7899
 IR Inten    --      3.1118                 5.3312                 2.5143

                     67                     68                     69
                      A                      A                      A
 Frequencies --    702.6967               727.2942               734.0109
 Red. masses --      3.1777                 3.4505                 3.7204
 Frc consts  --      0.9245                 1.0753                 1.1810
 IR Inten    --      7.6322                 7.7970                 1.8602

                     70                     71                     72
                      A                      A                      A
 Frequencies --    743.5673               770.6660               787.0662
 Red. masses --      2.3235                 2.5590                 4.1215
 Frc consts  --      0.7569                 0.8955                 1.5043
 IR Inten    --      2.2025                 2.4514                 2.0389

                     73                     74                     75
                      A                      A                      A
 Frequencies --    817.6991               823.3184               842.7590
 Red. masses --      2.7647                 2.9369                 2.9288
 Frc consts  --      1.0891                 1.1729                 1.2256
 IR Inten    --      1.4858                 5.1626                 1.9429

                     76                     77                     78
                      A                      A                      A
 Frequencies --    859.8090               881.1427               899.6242
 Red. masses --      2.1179                 2.8255                 3.2410
 Frc consts  --      0.9225                 1.2925                 1.5454
 IR Inten    --      7.9052                 4.9332                 3.1417

                     79                     80                     81
                      A                      A                      A
 Frequencies --    927.2740               928.1431               937.4492
 Red. masses --      1.6469                 1.8205                 1.6091
 Frc consts  --      0.8343                 0.9240                 0.8331
 IR Inten    --     10.5204                20.8220                 9.4300

                     82                     83                     84
                      A                      A                      A
 Frequencies --    940.1668               954.9872               963.2120
 Red. masses --      1.6798                 1.3480                 1.3024
 Frc consts  --      0.8748                 0.7244                 0.7119
 IR Inten    --      9.6921                20.5819                 5.5095

                     85                     86                     87
                      A                      A                      A
 Frequencies --    964.2438               974.1307               978.3327
 Red. masses --      1.0865                 1.0583                 1.1840
 Frc consts  --      0.5952                 0.5917                 0.6677
 IR Inten    --      2.4005                 1.1406                 7.9504

                     88                     89                     90
                      A                      A                      A
 Frequencies --    984.9304               987.3760               990.6585
 Red. masses --      1.3133                 1.1249                 1.6279
 Frc consts  --      0.7506                 0.6461                 0.9413
 IR Inten    --      3.8128                11.6974                11.7165

                     91                     92                     93
                      A                      A                      A
 Frequencies --    999.3695              1003.7184              1007.0981
 Red. masses --      1.2905                 1.2824                 1.3155
 Frc consts  --      0.7594                 0.7612                 0.7861
 IR Inten    --     10.5743                26.5051                21.5871

                     94                     95                     96
                      A                      A                      A
 Frequencies --   1017.9836              1026.4356              1050.9306
 Red. masses --      1.0850                 2.4522                 1.8750
 Frc consts  --      0.6624                 1.5222                 1.2201
 IR Inten    --     10.0501                 0.4769                13.2282

                     97                     98                     99
                      A                      A                      A
 Frequencies --   1060.5822              1076.1079              1086.6160
 Red. masses --      1.5954                 2.1731                 2.7981
 Frc consts  --      1.0573                 1.4827                 1.9465
 IR Inten    --     14.0015                21.5304                33.9221

                    100                    101                    102
                      A                      A                      A
 Frequencies --   1101.6754              1127.0400              1145.7421
 Red. masses --      3.0828                 3.0969                 3.2411
 Frc consts  --      2.2044                 2.3177                 2.5068
 IR Inten    --      4.5562                 2.7338                 0.5281

                    103                    104                    105
                      A                      A                      A
 Frequencies --   1162.4640              1180.4258              1187.4986
 Red. masses --      4.1129                 3.1567                 3.2290
 Frc consts  --      3.2746                 2.5916                 2.6828
 IR Inten    --     15.8311                44.9879                 2.6787

                    106                    107                    108
                      A                      A                      A
 Frequencies --   1209.1504              1251.5013              1274.7325
 Red. masses --      5.2029                 5.9398                 6.7828
 Frc consts  --      4.4818                 5.4813                 6.4938
 IR Inten    --      7.2515                15.7692                 3.1805

                    109                    110                    111
                      A                      A                      A
 Frequencies --   1293.9770              1311.4961              1346.6645
 Red. masses --      5.3786                 6.4393                 7.2906
 Frc consts  --      5.3061                 6.5256                 7.7900
 IR Inten    --      1.0820                 4.9127                 1.2690

                    112                    113                    114
                      A                      A                      A
 Frequencies --   1369.8764              1785.2440              1818.4107
 Red. masses --      8.8068                 8.6708                11.4911
 Frc consts  --      9.7372                16.2819                22.3871
 IR Inten    --     21.2603                20.2581                 7.4840

                    115                    116                    117
                      A                      A                      A
 Frequencies --   4341.3679              4356.2939              4411.9506
 Red. masses --      1.0870                 1.0868                 1.0616
 Frc consts  --     12.0707                12.1516                12.1750
 IR Inten    --      6.4419                 6.4855                11.0994

                    118                    119                    120
                      A                      A                      A
 Frequencies --   4422.1983              4424.9520              4426.2286
 Red. masses --      1.0570                 1.0602                 1.0611
 Frc consts  --     12.1791                12.2308                12.2482
 IR Inten    --     13.4716                 8.3656                 8.1552

                    121                    122                    123
                      A                      A                      A
 Frequencies --   4427.1142              4462.5690              4463.5689
 Red. masses --      1.0612                 1.0320                 1.0320
 Frc consts  --     12.2538                12.1089                12.1143
 IR Inten    --      6.5287                 6.0764                11.5227

                    124                    125                    126
                      A                      A                      A
 Frequencies --   4464.0816              4466.5847              4466.6471
 Red. masses --      1.0307                 1.0314                 1.0322
 Frc consts  --     12.1020                12.1234                12.1327
 IR Inten    --     21.1763                36.5516                 9.2584

                    127                    128                    129
                      A                      A                      A
 Frequencies --   4529.9860              4541.5507              4545.8857
 Red. masses --      1.1065                 1.1071                 1.1072
 Frc consts  --     13.3779                13.4538                13.4808
 IR Inten    --      4.9168                 1.9126                 2.2867

                    130                    131                    132
                      A                      A                      A
 Frequencies --   4547.9152              4566.6638              4662.7573
 Red. masses --      1.1077                 1.1133                 1.1069
 Frc consts  --     13.4990                13.6792                14.1785
 IR Inten    --      2.6845                 5.9467                19.6302

                    133                    134                    135
                      A                      A                      A
 Frequencies --   4664.5435              4666.9987              4667.9893
 Red. masses --      1.1072                 1.1066                 1.1067
 Frc consts  --     14.1934                14.2007                14.2079
 IR Inten    --      5.7866                 2.7989                 4.8673

                    136                    137                    138
                      A                      A                      A
 Frequencies --   4669.6022              4674.6798              4676.5011
 Red. masses --      1.1067                 1.1067                 1.1069
 Frc consts  --     14.2176                14.2492                14.2629
 IR Inten    --      5.6926                 2.8759                 5.1965

                    139                    140                    141
                      A                      A                      A
 Frequencies --   4679.0586              4681.0451              4681.7709
 Red. masses --      1.1067                 1.1078                 1.1077
 Frc consts  --     14.2757                14.3015                14.3049
 IR Inten    --      5.9025                 3.4696                 4.3352

                    142                    143                    144
                      A                      A                      A
 Frequencies --   4912.7847              5131.3628              7760.7605
 Red. masses --      1.0497                 1.1218                 1.0672
 Frc consts  --     14.9271                17.4026                37.8704
 IR Inten    --      0.1536                 0.3173               163.8210

 - Thermochemistry -
 -------------------
 Temperature   298.150 Kelvin.  Pressure   1.00000 Atm.
 Atom     1 has atomic number  6 and mass  12.00000

 Molecular mass:   278.23581 amu.
 Principal axes and moments of inertia in atomic units:
                           1         2         3
     Eigenvalues --  3735.379876491.463117854.44089
           X            0.99994   0.00275  -0.01027
           Y           -0.00293   0.99983  -0.01827
           Z            0.01022   0.01830   0.99978
 This molecule is an asymmetric top.
 Rotational symmetry number  1.
 Warning -- assumption of classical behavior for rotation
           may cause significant error
 Rotational temperatures (Kelvin)      0.02319     0.01334     0.01103
 Rotational constants (GHZ):           0.48315     0.27802     0.22977
   36 imaginary frequencies ignored.
 Zero-point vibrational energy    1212652.5 (Joules/Mol)
                                  289.83090 (Kcal/Mol)
 Warning -- explicit consideration of  28 degrees of freedom as
           vibrations may cause significant error
 Vibrational temperatures:     84.52   129.43   224.25   267.19   360.99
          (Kelvin)            383.37   425.34   474.25   493.34   506.11
                              529.90   548.91   562.60   582.65   596.49
                              609.39   645.40   666.75   670.92   694.87
                              701.63   724.48   768.24   785.73   792.65
                              834.87   884.96   890.85   934.90   963.61
                             1011.02  1046.41  1056.08  1069.83  1108.82
                             1132.41  1176.49  1184.57  1212.54  1237.07
                             1267.77  1294.36  1334.14  1335.39  1348.78
                             1352.69  1374.01  1385.85  1387.33  1401.56
                             1407.60  1417.10  1420.61  1425.34  1437.87
                             1444.13  1448.99  1464.65  1476.81  1512.05
                             1525.94  1548.28  1563.40  1585.07  1621.56
                             1648.47  1672.53  1698.37  1708.55  1739.70
                             1800.63  1834.06  1861.74  1886.95  1937.55
                             1970.95  2568.57  2616.29  6246.26  6267.74
                             6347.81  6362.56  6366.52  6368.36  6369.63
                             6420.64  6422.08  6422.82  6426.42  6426.51
                             6517.64  6534.28  6540.52  6543.44  6570.41
                             6708.67  6711.24  6714.77  6716.20  6718.52
                             6725.82  6728.44  6732.12  6734.98  6736.02
                             7068.40  7382.89 11166.00

 Zero-point correction=                           0.461875 (Hartree/Particle)
 Thermal correction to Energy=                    0.476611
 Thermal correction to Enthalpy=                  0.477555
 Thermal correction to Gibbs Free Energy=         0.422034
 Sum of electronic and zero-point Energies=           -847.937853
 Sum of electronic and thermal Energies=              -847.923117
 Sum of electronic and thermal Enthalpies=            -847.922173
 Sum of electronic and thermal Free Energies=         -847.977694

                     E (Thermal)             CV                S
                      KCal/Mol        Cal/Mol-Kelvin    Cal/Mol-Kelvin
 Total                  299.078             67.212            116.854
 Electronic               0.000              0.000              0.000
 Translational            0.889              2.981             42.768
 Rotational               0.889              2.981             33.609
 Vibrational            297.300             61.250             40.477
 Vibration     1          0.596              1.974              4.499
 Vibration     2          0.602              1.956              3.661
 Vibration     3          0.620              1.896              2.599
 Vibration     4          0.632              1.859              2.270
 Vibration     5          0.663              1.761              1.724
 Vibration     6          0.672              1.735              1.619
 Vibration     7          0.690              1.682              1.442
 Vibration     8          0.712              1.616              1.262
 Vibration     9          0.722              1.590              1.199
 Vibration    10          0.728              1.572              1.158
 Vibration    11          0.741              1.537              1.087
 Vibration    12          0.751              1.510              1.033
 Vibration    13          0.759              1.489              0.996
 Vibration    14          0.770              1.459              0.945
 Vibration    15          0.778              1.439              0.911
 Vibration    16          0.786              1.419              0.880
 Vibration    17          0.808              1.364              0.800
 Vibration    18          0.821              1.331              0.756
 Vibration    19          0.824              1.325              0.748
 Vibration    20          0.839              1.288              0.702
 Vibration    21          0.844              1.277              0.690
 Vibration    22          0.859              1.242              0.649
 Vibration    23          0.889              1.175              0.578
 Vibration    24          0.901              1.148              0.552
 Vibration    25          0.906              1.138              0.542
 Vibration    26          0.937              1.074              0.485
 Vibration    27          0.975              1.000              0.424
 Vibration    28          0.979              0.991              0.418

 Normal termination of Gaussian 16 at Sat Mar  4 13:56:18 2023.
