 Gaussian 16, Revision C.01,
 Gaussian 16:  ES64L-G16RevC.01  3-Jul-2019

 ----------------------------------------------------------------------
 #p pop=(regular,nbo,savenbos) freq=noraman def2svp empiricaldispersion
 =gd3bj output=wfx pbe1pbe
 ----------------------------------------------------------------------

 ----------------------------------------
 EVUNEO_Complex_0_Ligand_2_NN_Cu_oriented
 ----------------------------------------
 Symbolic Z-matrix:
 Charge = -1 Multiplicity = 1

                         Standard orientation:
 ---------------------------------------------------------------------
 Center     Atomic      Atomic             Coordinates (Angstroms)
 Number     Number       Type             X           Y           Z
 ---------------------------------------------------------------------
      1          8           0        3.121629    2.604988   -0.434315
      2          8           0        1.028701    2.378917    0.155630
      3          7           0       -0.650325   -1.681502   -0.349060
      4          7           0       -0.657139    0.541549   -0.176372
      5          1           0       -0.345823    1.332792   -0.055392
      6          7           0        1.905684   -1.937863   -0.001428
      7          6           0        0.057343   -0.540353   -0.190458
      8          6           0        1.518439   -0.623191   -0.051469
      9          6           0        2.442699    0.426363    0.033344
     10          6           0        3.772514    0.077704    0.225267
     11          1           0        4.419414    0.743196    0.276626
     12          6           0        4.144557   -1.235503    0.336069
     13          1           0        5.029021   -1.462513    0.511950
     14          6           0        3.183794   -2.223785    0.185856
     15          1           0        3.445434   -3.114877    0.218171
     16          6           0        2.158847    1.927320   -0.076295
     17          8           0       -2.920343   -2.092496   -0.491888
     18          6           0       -2.087160    0.225739   -0.392567
     19          6           0       -2.557342    0.755137   -1.794106
     20          1           0       -2.018334    0.361564   -2.483034
     21          1           0       -3.477323    0.518249   -1.933374
     22          1           0       -2.466076    1.710930   -1.822389
     23          6           0       -2.908607    0.813249    0.652725
     24          1           0       -2.761524    1.782372    0.647402
     25          6           0       -4.416153    0.562511    0.468143
     26          1           0       -4.693512    0.901687   -0.385913
     27          1           0       -4.590145   -0.382478    0.508251
     28          1           0       -4.902920    1.007681    1.164785
     29          6           0       -2.435076    0.256382    2.039238
     30          1           0       -1.493994    0.416380    2.143111
     31          1           0       -2.914110    0.701141    2.743713
     32          1           0       -2.607018   -0.686284    2.082258
     33          6           0       -1.982275   -1.324306   -0.396340
 ---------------------------------------------------------------------

 SCF Done:  E(RPBE1PBE) =  -891.950840831     A.U. after   17 cycles

 The electronic state is 1-A.
 Alpha  occ. eigenvalues --  -19.05048 -18.99011 -18.98411 -14.28330 -14.27264
 Alpha  occ. eigenvalues --  -14.22571 -10.19348 -10.18939 -10.16532 -10.16368
 Alpha  occ. eigenvalues --  -10.16062 -10.14221 -10.12660 -10.12390 -10.11849
 Alpha  occ. eigenvalues --  -10.11623 -10.09486 -10.08634 -10.07984  -0.93325
 Alpha  occ. eigenvalues --   -0.90165  -0.89240  -0.84932  -0.79942  -0.76871
 Alpha  occ. eigenvalues --   -0.74195  -0.71490  -0.69171  -0.67477  -0.63906
 Alpha  occ. eigenvalues --   -0.60312  -0.56865  -0.55171  -0.52604  -0.51224
 Alpha  occ. eigenvalues --   -0.46809  -0.44408  -0.43393  -0.41202  -0.39443
 Alpha  occ. eigenvalues --   -0.38795  -0.38302  -0.36653  -0.36207  -0.33794
 Alpha  occ. eigenvalues --   -0.33068  -0.32728  -0.32196  -0.32068  -0.31529
 Alpha  occ. eigenvalues --   -0.30068  -0.29624  -0.28807  -0.28115  -0.26978
 Alpha  occ. eigenvalues --   -0.26334  -0.25855  -0.25424  -0.25099  -0.22988
 Alpha  occ. eigenvalues --   -0.18422  -0.17320  -0.16217  -0.14700  -0.12504
 Alpha  occ. eigenvalues --   -0.11855  -0.10452  -0.10161  -0.08404
 Alpha virt. eigenvalues --    0.05528   0.08997   0.14138   0.17678   0.20414
 Alpha virt. eigenvalues --    0.20571   0.21443   0.22634   0.23127   0.23567
 Alpha virt. eigenvalues --    0.24775   0.25218   0.26378   0.27477   0.28107

 Mulliken charges:
               1
     1  O   -0.378259
     2  O   -0.416907
     3  N   -0.254559
     4  N    0.041155
     5  H    0.007195
     6  N   -0.149692
     7  C    0.065172
     8  C   -0.012001
     9  C   -0.112556
    10  C    0.163993
    11  H   -0.117543
    12  C    0.042310
    13  H   -0.110623
    14  C    0.178985
    15  H   -0.098770
    16  C    0.214281
    17  O   -0.277012
    18  C   -0.322234
    19  C    0.323359
    20  H   -0.031404
    21  H   -0.029757
    22  H   -0.027343
    23  C   -0.133867
    24  H   -0.021823
    25  C    0.229970
    26  H   -0.046347
    27  H   -0.018514
    28  H   -0.047634
    29  C    0.221039
    30  H   -0.018737
    31  H   -0.047412
    32  H   -0.017804
    33  C    0.203337
 Sum of Mulliken charges =  -1.00000

 Dipole moment (field-independent basis, Debye):
    X=             -2.7801    Y=             -1.3952    Z=              1.4074  Tot=              3.4141
 Quadrupole moment (field-independent basis, Debye-Ang):
   XX=           -135.7055   YY=           -152.2402   ZZ=           -110.8581
   XY=            -32.5930   XZ=              2.6819   YZ=             -1.5619

  Exact polarizability:     217.635      -3.033     151.119       8.013      -3.154      98.115
 Approx polarizability:     301.301      14.655     258.898      12.137      -3.587     141.714

 Summary of Natural Population Analysis:

                                       Natural Population
                Natural  -----------------------------------------------
    Atom  No    Charge         Core      Valence    Rydberg      Total
 -----------------------------------------------------------------------
      O    1   -0.74228      1.99975     6.73288    0.00965     8.74228
      O    2   -0.80231      1.99972     6.79207    0.01052     8.80231
      N    3   -0.63309      1.99928     5.61836    0.01545     7.63309
      N    4   -0.53713      1.99900     5.51965    0.01849     7.53713
      H    5    0.40053      0.00000     0.59144    0.00803     0.59947
      N    6   -0.43751      1.99934     5.42139    0.01677     7.43751
      C    7    0.50025      1.99910     3.46447    0.03618     5.49975
      C    8    0.14638      1.99888     3.82861    0.02613     5.85362
      C    9   -0.12657      1.99886     4.10524    0.02246     6.12657
      C   10   -0.11496      1.99902     4.09834    0.01760     6.11496
      H   11    0.18674      0.00000     0.80712    0.00614     0.81326
      C   12   -0.21086      1.99910     4.19832    0.01343     6.21086
      H   13    0.16205      0.00000     0.83446    0.00349     0.83795
      C   14    0.09237      1.99912     3.88734    0.02117     5.90763
      H   15    0.14061      0.00000     0.85625    0.00315     0.85939
      C   16    0.80074      1.99937     3.13348    0.06641     5.19926
      O   17   -0.64519      1.99971     6.63453    0.01095     8.64519
      C   18    0.05350      1.99883     3.92559    0.02208     5.94650
      C   19   -0.52595      1.99912     4.51432    0.01252     6.52595
      H   20    0.19652      0.00000     0.80114    0.00234     0.80348
      H   21    0.18881      0.00000     0.80789    0.00330     0.81119
      H   22    0.18714      0.00000     0.81002    0.00285     0.81286
      C   23   -0.20285      1.99887     4.18677    0.01721     6.20285
      H   24    0.18900      0.00000     0.80615    0.00485     0.81100
      C   25   -0.54202      1.99916     4.53206    0.01080     6.54202
      H   26    0.17894      0.00000     0.81859    0.00247     0.82106
      H   27    0.20044      0.00000     0.79477    0.00479     0.79956
      H   28    0.17966      0.00000     0.81770    0.00264     0.82034
      C   29   -0.54150      1.99915     4.53150    0.01085     6.54150
      H   30    0.19412      0.00000     0.80266    0.00322     0.80588
      H   31    0.17909      0.00000     0.81842    0.00249     0.82091
      H   32    0.18942      0.00000     0.80779    0.00279     0.81058
      C   33    0.69594      1.99911     3.24519    0.05975     5.30406
 =======================================================================
   * Total *   -1.00000     37.98452    99.54450    0.47099   138.00000

 ******   20 imaginary frequencies (negative Signs) ******

                      1                      2                      3
                      A                      A                      A
 Frequencies --  -1816.9016             -1427.7931             -1391.1361
 Red. masses --      1.0804                 1.0803                 1.0089
 Frc consts  --      2.1014                 1.2975                 1.1504
 IR Inten    --     75.9304                31.2533                 0.0339

                      4                      5                      6
                      A                      A                      A
 Frequencies --  -1388.0936             -1378.1802             -1315.0651
 Red. masses --      1.0083                 1.0117                 1.0362
 Frc consts  --      1.1447                 1.1322                 1.0558
 IR Inten    --      0.0372                 0.3139                 0.3111

                      7                      8                      9
                      A                      A                      A
 Frequencies --  -1222.9995             -1214.5262             -1030.4060
 Red. masses --      1.0502                 1.0303                 1.0745
 Frc consts  --      0.9255                 0.8954                 0.6721
 IR Inten    --     83.7154                 0.4079                13.0997

                     10                     11                     12
                      A                      A                      A
 Frequencies --  -1020.7331             -1006.9910              -997.1746
 Red. masses --      1.0391                 1.0401                 1.0516
 Frc consts  --      0.6379                 0.6214                 0.6161
 IR Inten    --      3.9900                 8.4773                 7.4325

                     13                     14                     15
                      A                      A                      A
 Frequencies --   -985.1493              -956.6826              -951.5999
 Red. masses --      1.0241                 1.0266                 1.0960
 Frc consts  --      0.5856                 0.5536                 0.5847
 IR Inten    --      0.3318                 2.7223                 2.6024

                     16                     17                     18
                      A                      A                      A
 Frequencies --   -824.6526              -726.5695              -371.9128
 Red. masses --      1.0956                 1.1236                 1.8010
 Frc consts  --      0.4390                 0.3495                 0.1468
 IR Inten    --     16.4727                 7.8343                 0.0969

                     19                     20                     21
                      A                      A                      A
 Frequencies --   -231.0704              -127.4229                75.9084
 Red. masses --      2.7349                14.9335                 8.0605
 Frc consts  --      0.0860                 0.1429                 0.0274
 IR Inten    --      0.3643                 0.8743                14.6478

                     22                     23                     24
                      A                      A                      A
 Frequencies --    106.6332               127.7885               192.0977
 Red. masses --      6.1299                11.6218                12.0013
 Frc consts  --      0.0411                 0.1118                 0.2609
 IR Inten    --      1.8889                 2.3718                 4.3077

                     25                     26                     27
                      A                      A                      A
 Frequencies --    211.9700               250.1107               276.5394
 Red. masses --      8.2412                 9.9980                 6.1648
 Frc consts  --      0.2182                 0.3685                 0.2778
 IR Inten    --     18.7878                 1.6636                 3.6797

                     28                     29                     30
                      A                      A                      A
 Frequencies --    288.0748               301.5304               323.1804
 Red. masses --      1.4801                 6.6589                 1.2940
 Frc consts  --      0.0724                 0.3567                 0.0796
 IR Inten    --      3.7055                 1.3793                22.3818

                     31                     32                     33
                      A                      A                      A
 Frequencies --    377.0070               388.8456               408.7369
 Red. masses --      7.7446                 6.2707                10.7123
 Frc consts  --      0.6486                 0.5586                 1.0544
 IR Inten    --      2.1703                 5.5847                 6.9505

                     34                     35                     36
                      A                      A                      A
 Frequencies --    414.8292               445.9893               487.4596
 Red. masses --      1.2745                 7.0812                 3.0234
 Frc consts  --      0.1292                 0.8299                 0.4233
 IR Inten    --     22.2214                 3.4249                 4.1019

                     37                     38                     39
                      A                      A                      A
 Frequencies --    498.1343               510.8380               555.2295
 Red. masses --      4.8595                 9.7320                 5.7635
 Frc consts  --      0.7105                 1.4963                 1.0468
 IR Inten    --      2.8901                 8.8330                 0.6782

                     40                     41                     42
                      A                      A                      A
 Frequencies --    570.8483               596.2399               649.8575
 Red. masses --      4.4771                 5.6769                 3.9182
 Frc consts  --      0.8596                 1.1891                 0.9749
 IR Inten    --      1.7111                 2.3289                 6.6500

                     43                     44                     45
                      A                      A                      A
 Frequencies --    653.6840               725.7084               743.4666
 Red. masses --      7.2159                 5.7116                 3.8757
 Frc consts  --      1.8167                 1.7723                 1.2622
 IR Inten    --      6.8726                18.7252                 1.0562

                     46                     47                     48
                      A                      A                      A
 Frequencies --    744.9194               769.0402               775.3493
 Red. masses --      2.5632                 7.1073                 7.6316
 Frc consts  --      0.8380                 2.4766                 2.7031
 IR Inten    --      1.0095                 6.9943                36.5847

                     49                     50                     51
                      A                      A                      A
 Frequencies --    791.2628               807.1156               819.6503
 Red. masses --      6.1582                 7.2604                 6.6776
 Frc consts  --      2.2717                 2.7867                 2.6432
 IR Inten    --      3.9936                39.0425                18.1641

                     52                     53                     54
                      A                      A                      A
 Frequencies --    869.0783               876.7645               890.5927
 Red. masses --     10.6072                 2.4253                 5.0603
 Frc consts  --      4.7203                 1.0985                 2.3648
 IR Inten    --      0.3552                 6.6826                56.9910

                     55                     56                     57
                      A                      A                      A
 Frequencies --    940.4936               964.8224               968.5367
 Red. masses --      1.6682                 1.3517                 1.2003
 Frc consts  --      0.8694                 0.7414                 0.6634
 IR Inten    --     32.8034                 3.5397                 0.6762

                     58                     59                     60
                      A                      A                      A
 Frequencies --    976.2429               999.5807              1011.0856
 Red. masses --      1.1398                 1.4124                 1.8002
 Frc consts  --      0.6400                 0.8315                 1.0843
 IR Inten    --      4.0327                 0.1480                 7.2933

                     61                     62                     63
                      A                      A                      A
 Frequencies --   1064.4703              1082.5334              1117.0842
 Red. masses --      1.8226                 1.6954                 3.2424
 Frc consts  --      1.2167                 1.1706                 2.3839
 IR Inten    --      1.5511                27.3074                13.7397

                     64                     65                     66
                      A                      A                      A
 Frequencies --   1124.6162              1141.8864              1162.4174
 Red. masses --      8.5748                 4.6162                 4.6967
 Frc consts  --      6.3898                 3.5463                 3.7391
 IR Inten    --      9.6970                18.4513                20.3396

                     67                     68                     69
                      A                      A                      A
 Frequencies --   1207.9851              1269.9657              1320.3660
 Red. masses --      8.6336                 8.2660                 9.3154
 Frc consts  --      7.4228                 7.8547                 9.5684
 IR Inten    --     52.4578               163.7726                 8.3237

                     70                     71                     72
                      A                      A                      A
 Frequencies --   1376.0193              1412.7400              1466.3360
 Red. masses --     10.7729                 9.9769                 8.0201
 Frc consts  --     12.0180                11.7319                10.1600
 IR Inten    --    215.0309                 7.0812                14.6079

                     73                     74                     75
                      A                      A                      A
 Frequencies --   1496.8949              1504.6615              1642.8807
 Red. masses --     13.1248                10.6378                10.6693
 Frc consts  --     17.3271                14.1899                16.9667
 IR Inten    --    264.2533               160.9819                15.4164

                     76                     77                     78
                      A                      A                      A
 Frequencies --   1663.2242              1721.9280              1838.3729
 Red. masses --     10.9467                11.2534                12.8542
 Frc consts  --     17.8416                19.6592                25.5955
 IR Inten    --     12.2325               176.4085               502.5448

                     79                     80                     81
                      A                      A                      A
 Frequencies --   1856.8377              4352.1008              4466.1326
 Red. masses --     12.8037                 1.0871                 1.0321
 Frc consts  --     26.0096                12.1320                12.1294
 IR Inten    --    450.1029                12.0062                12.3381

                     82                     83                     84
                      A                      A                      A
 Frequencies --   4468.2361              4474.4115              4666.7967
 Red. masses --      1.0322                 1.0319                 1.1065
 Frc consts  --     12.1415                12.1715                14.1984
 IR Inten    --     12.9662                10.1669                 6.6977

                     85                     86                     87
                      A                      A                      A
 Frequencies --   4668.2799              4676.2908              4680.7247
 Red. masses --      1.1066                 1.1071                 1.1066
 Frc consts  --     14.2085                14.2646                14.2850
 IR Inten    --      2.4075                 2.4497                 8.4943

                     88                     89                     90
                      A                      A                      A
 Frequencies --   4687.5089              4689.8667              5028.4030
 Red. masses --      1.1071                 1.1066                 1.0877
 Frc consts  --     14.3330                14.3405                16.2039
 IR Inten    --      1.1727                 1.4937                 1.0182

                     91                     92                     93
                      A                      A                      A
 Frequencies --   5042.8090              5050.1460              5808.5357
 Red. masses --      1.0899                 1.0907                 1.0793
 Frc consts  --     16.3300                16.3897                21.4541
 IR Inten    --      8.6647                 5.3980               486.2110

 - Thermochemistry -
 -------------------
 Temperature   298.150 Kelvin.  Pressure   1.00000 Atm.
 Atom     1 has atomic number  8 and mass  15.99491

 Molecular mass:   260.10352 amu.
 Principal axes and moments of inertia in atomic units:
                           1         2         3
     Eigenvalues --  2523.859286883.167968373.02526
           X            0.99958  -0.02882  -0.00234
           Y            0.02881   0.99956  -0.00713
           Z            0.00255   0.00706   0.99997
 This molecule is an asymmetric top.
 Rotational symmetry number  1.
 Warning -- assumption of classical behavior for rotation
           may cause significant error
 Rotational temperatures (Kelvin)      0.03432     0.01258     0.01034
 Rotational constants (GHZ):           0.71507     0.26220     0.21554
   20 imaginary frequencies ignored.
 Zero-point vibrational energy     697522.8 (Joules/Mol)
                                  166.71195 (Kcal/Mol)
 Warning -- explicit consideration of  21 degrees of freedom as
           vibrations may cause significant error
 Vibrational temperatures:    109.22   153.42   183.86   276.39   304.98
          (Kelvin)            359.85   397.88   414.48   433.83   464.98
                              542.43   559.46   588.08   596.85   641.68
                              701.35   716.70   734.98   798.85   821.32
                              857.86   935.00   940.51  1044.13  1069.68
                             1071.77  1106.48  1115.55  1138.45  1161.26
                             1179.29  1250.41  1261.47  1281.36  1353.16
                             1388.16  1393.51  1404.60  1438.17  1454.73
                             1531.54  1557.52  1607.24  1618.07  1642.92
                             1672.46  1738.02  1827.20  1899.71  1979.78
                             2032.62  2109.73  2153.70  2164.87  2363.74
                             2393.01  2477.47  2645.01  2671.58  6261.70
                             6425.77  6428.80  6437.68  6714.48  6716.61
                             6728.14  6734.52  6744.28  6747.67  7234.75
                             7255.48  7266.03  8357.19

 Zero-point correction=                           0.265672 (Hartree/Particle)
 Thermal correction to Energy=                    0.278311
 Thermal correction to Enthalpy=                  0.279255
 Thermal correction to Gibbs Free Energy=         0.226838
 Sum of electronic and zero-point Energies=           -891.685168
 Sum of electronic and thermal Energies=              -891.672530
 Sum of electronic and thermal Enthalpies=            -891.671586
 Sum of electronic and thermal Free Energies=         -891.724003

                     E (Thermal)             CV                S
                      KCal/Mol        Cal/Mol-Kelvin    Cal/Mol-Kelvin
 Total                  174.643             52.416            110.321
 Electronic               0.000              0.000              0.000
 Translational            0.889              2.981             42.567
 Rotational               0.889              2.981             33.342
 Vibrational            172.865             46.455             34.412
 Vibration     1          0.599              1.965              3.994
 Vibration     2          0.606              1.944              3.329
 Vibration     3          0.611              1.925              2.979
 Vibration     4          0.634              1.851              2.207
 Vibration     5          0.643              1.823              2.027
 Vibration     6          0.663              1.763              1.730
 Vibration     7          0.678              1.717              1.555
 Vibration     8          0.685              1.696              1.485
 Vibration     9          0.694              1.671              1.408
 Vibration    10          0.708              1.629              1.294
 Vibration    11          0.748              1.519              1.051
 Vibration    12          0.757              1.494              1.005
 Vibration    13          0.773              1.451              0.931
 Vibration    14          0.778              1.438              0.910
 Vibration    15          0.805              1.370              0.808
 Vibration    16          0.843              1.278              0.690
 Vibration    17          0.854              1.254              0.663
 Vibration    18          0.866              1.226              0.632
 Vibration    19          0.911              1.128              0.533
 Vibration    20          0.927              1.094              0.503
 Vibration    21          0.954              1.040              0.456

 Normal termination of Gaussian 16 at Mon Mar  6 11:14:06 2023.
