 Gaussian 16, Revision C.01,
 Gaussian 16:  ES64L-G16RevC.01  3-Jul-2019

 ----------------------------------------------------------------------
 #p pop=(regular,nbo,savenbos) freq=noraman def2svp empiricaldispersion
 =gd3bj output=wfx pbe1pbe
 ----------------------------------------------------------------------

 ----------------------------------------
 FAGWIV_Complex_9_Ligand_1_OO_Cu_oriented
 ----------------------------------------
 Symbolic Z-matrix:
 Charge = -1 Multiplicity = 1

                         Standard orientation:
 ---------------------------------------------------------------------
 Center     Atomic      Atomic             Coordinates (Angstroms)
 Number     Number       Type             X           Y           Z
 ---------------------------------------------------------------------
      1          8           0        3.202259    0.782596   -0.805638
      2          6           0        2.654953   -0.092654   -0.038478
      3          6           0        1.299366    0.229066    0.573562
      4          6           0        0.919493    1.707700    0.565884
      5          1           0        1.105662    2.111999    1.428555
      6          6           0       -0.588990    1.754628    0.259025
      7          1           0       -1.043472    2.346904    0.878839
      8          6           0       -1.098834    0.314713    0.418168
      9          6           0       -1.421923    0.042866    1.896690
     10          1           0       -2.148901    0.604607    2.174086
     11          1           0       -0.649905    0.231675    2.432858
     12          1           0       -1.668843   -0.877903    2.006524
     13          6           0        0.122658   -0.549479   -0.075811
     14          6           0        0.241895   -0.527008   -1.603587
     15          1           0        1.043734   -0.983526   -1.868813
     16          1           0        0.275196    0.382389   -1.908958
     17          1           0       -0.519225   -0.966085   -1.990274
     18          6           0        0.071010   -2.012683    0.381742
     19          1           0       -0.735927   -2.420435    0.060009
     20          1           0        0.086748   -2.049129    1.340626
     21          1           0        0.831170   -2.484365    0.031916
     22          6           0       -2.331453    0.074241   -0.448461
     23          1           0        1.281649   -0.101175    1.453708
     24          1           0       -3.740375   -0.931285   -0.445549
     25          8           0        3.236633   -1.163709    0.214550
     26          8           0       -2.594281    0.699648   -1.447818
     27          8           0       -3.095103   -0.914459   -0.011808
     28          1           0        1.421058    2.183822   -0.114895
     29          1           0       -0.743695    2.071553   -0.645317
 ---------------------------------------------------------------------

 SCF Done:  E(RPBE1PBE) =  -689.546737529     A.U. after   17 cycles

 The electronic state is 1-A.
 Alpha  occ. eigenvalues --  -19.15169 -19.09359 -18.93314 -18.92545 -10.25397
 Alpha  occ. eigenvalues --  -10.13003 -10.11184 -10.10198 -10.07975 -10.07337
 Alpha  occ. eigenvalues --  -10.05040 -10.04973 -10.04922 -10.04134  -1.07526
 Alpha  occ. eigenvalues --   -0.94318  -0.82395  -0.76079  -0.71737  -0.67747
 Alpha  occ. eigenvalues --   -0.66215  -0.61866  -0.60009  -0.58604  -0.54404
 Alpha  occ. eigenvalues --   -0.47422  -0.44469  -0.41011  -0.39487  -0.38586
 Alpha  occ. eigenvalues --   -0.37173  -0.35891  -0.34675  -0.33077  -0.32510
 Alpha  occ. eigenvalues --   -0.31909  -0.30803  -0.29699  -0.28718  -0.27202
 Alpha  occ. eigenvalues --   -0.25609  -0.24652  -0.23563  -0.22083  -0.21012
 Alpha  occ. eigenvalues --   -0.20631  -0.20546  -0.20094  -0.18235  -0.17638
 Alpha  occ. eigenvalues --   -0.15588  -0.04606  -0.04024  -0.01798
 Alpha virt. eigenvalues --    0.12136   0.17833   0.20391   0.23369   0.24005
 Alpha virt. eigenvalues --    0.24464   0.25659   0.25883   0.27771   0.29128
 Alpha virt. eigenvalues --    0.29804   0.30061   0.31159   0.31519   0.32675

 Mulliken charges:
               1
     1  O   -0.468441
     2  C    0.146599
     3  C    0.026992
     4  C    0.266210
     5  H   -0.069909
     6  C    0.221684
     7  H   -0.077019
     8  C   -0.468328
     9  C    0.325620
    10  H   -0.053503
    11  H   -0.039931
    12  H   -0.031200
    13  C   -0.546339
    14  C    0.375869
    15  H   -0.010663
    16  H   -0.057903
    17  H   -0.065222
    18  C    0.340129
    19  H   -0.071211
    20  H   -0.057402
    21  H   -0.031405
    22  C    0.221108
    23  H   -0.103417
    24  H    0.035523
    25  O   -0.417435
    26  O   -0.263029
    27  O   -0.035299
    28  H   -0.058614
    29  H   -0.033465
 Sum of Mulliken charges =  -1.00000

 Dipole moment (field-independent basis, Debye):
    X=            -12.6640    Y=             -0.2914    Z=              2.8900  Tot=             12.9928
 Quadrupole moment (field-independent basis, Debye-Ang):
   XX=           -133.2781   YY=            -92.6793   ZZ=            -89.7867
   XY=              6.4350   XZ=              2.6247   YZ=              6.1565

  Exact polarizability:     112.228       0.725     101.982      -1.215      -3.896      91.890
 Approx polarizability:     145.446       0.320     151.565      -0.803     -16.175     136.933

 Summary of Natural Population Analysis:

                                       Natural Population
                Natural  -----------------------------------------------
    Atom  No    Charge         Core      Valence    Rydberg      Total
 -----------------------------------------------------------------------
      O    1   -0.81011      1.99977     6.80245    0.00789     8.81011
      C    2    0.78857      1.99938     3.13627    0.07577     5.21143
      C    3   -0.30657      1.99874     4.28282    0.02501     6.30657
      C    4   -0.36369      1.99914     4.34806    0.01649     6.36369
      H    5    0.17458      0.00000     0.82194    0.00348     0.82542
      C    6   -0.36704      1.99909     4.35071    0.01723     6.36704
      H    7    0.17857      0.00000     0.81796    0.00347     0.82143
      C    8   -0.15994      1.99888     4.14143    0.01963     6.15994
      C    9   -0.54856      1.99917     4.53537    0.01402     6.54856
      H   10    0.18303      0.00000     0.81408    0.00289     0.81697
      H   11    0.19454      0.00000     0.80301    0.00245     0.80546
      H   12    0.19471      0.00000     0.80254    0.00275     0.80529
      C   13    0.00314      1.99905     3.97999    0.01783     5.99686
      C   14   -0.55621      1.99915     4.54248    0.01458     6.55621
      H   15    0.21082      0.00000     0.78658    0.00260     0.78918
      H   16    0.19489      0.00000     0.80120    0.00391     0.80511
      H   17    0.17189      0.00000     0.82493    0.00318     0.82811
      C   18   -0.55558      1.99914     4.54189    0.01455     6.55558
      H   19    0.17414      0.00000     0.82227    0.00360     0.82586
      H   20    0.18078      0.00000     0.81650    0.00272     0.81922
      H   21    0.21052      0.00000     0.78280    0.00669     0.78948
      C   22    0.87566      1.99919     3.06207    0.06308     5.12434
      H   23    0.17297      0.00000     0.81944    0.00758     0.82703
      H   24    0.41397      0.00000     0.57607    0.00996     0.58603
      O   25   -0.78326      1.99974     6.77433    0.00918     8.78326
      O   26   -0.64024      1.99971     6.63019    0.01034     8.64024
      O   27   -0.64340      1.99956     6.62460    0.01924     8.64340
      H   28    0.21067      0.00000     0.77975    0.00959     0.78933
      H   29    0.20115      0.00000     0.79495    0.00390     0.79885
 =======================================================================
   * Total *   -1.00000     27.98970    79.61668    0.39361   108.00000

 ******   20 imaginary frequencies (negative Signs) ******

                      1                      2                      3
                      A                      A                      A
 Frequencies --  -2591.7417             -2262.6053             -1389.7337
 Red. masses --      1.0684                 1.0747                 1.0095
 Frc consts  --      4.2285                 3.2415                 1.1487
 IR Inten    --    102.0792               168.1188                 0.7098

                      4                      5                      6
                      A                      A                      A
 Frequencies --  -1382.2050             -1375.2526             -1067.6793
 Red. masses --      1.0086                 1.0119                 1.0478
 Frc consts  --      1.1353                 1.1276                 0.7038
 IR Inten    --      0.1491                 0.3886                 6.8431

                      7                      8                      9
                      A                      A                      A
 Frequencies --  -1058.0609             -1022.5687              -997.6938
 Red. masses --      1.0301                 1.0663                 1.0390
 Frc consts  --      0.6794                 0.6569                 0.6094
 IR Inten    --      0.0902                19.5139                 8.0616

                     10                     11                     12
                      A                      A                      A
 Frequencies --   -987.7294              -981.0432              -975.1644
 Red. masses --      1.0355                 1.0886                 1.0306
 Frc consts  --      0.5952                 0.6173                 0.5774
 IR Inten    --      8.1822                 1.9212                 0.5794

                     13                     14                     15
                      A                      A                      A
 Frequencies --   -955.4007              -873.5183              -771.8243
 Red. masses --      1.0353                 1.1016                 1.1520
 Frc consts  --      0.5568                 0.4952                 0.4043
 IR Inten    --      1.6329                 3.2038                 2.1221

                     16                     17                     18
                      A                      A                      A
 Frequencies --   -551.3981              -440.4811              -356.3626
 Red. masses --      1.2665                 1.2290                 1.2410
 Frc consts  --      0.2269                 0.1405                 0.0929
 IR Inten    --      3.4975                14.6565                 1.7520

                     19                     20                     21
                      A                      A                      A
 Frequencies --   -258.1122               -50.2756                64.7344
 Red. masses --      1.7357                11.9672                 9.4549
 Frc consts  --      0.0681                 0.0178                 0.0233
 IR Inten    --      6.3860                 1.0462                 3.2519

                     22                     23                     24
                      A                      A                      A
 Frequencies --    146.7077               180.7078               297.3393
 Red. masses --      9.3521                 6.8372                 4.2700
 Frc consts  --      0.1186                 0.1315                 0.2224
 IR Inten    --      5.8490                 9.9139                 4.9840

                     25                     26                     27
                      A                      A                      A
 Frequencies --    317.8858               347.3457               373.5000
 Red. masses --      6.8507                 1.2616                 1.2984
 Frc consts  --      0.4079                 0.0897                 0.1067
 IR Inten    --      3.6430                 9.5310                35.2955

                     28                     29                     30
                      A                      A                      A
 Frequencies --    403.6516               434.4644               446.3430
 Red. masses --      5.1854                 3.1371                 2.4547
 Frc consts  --      0.4978                 0.3489                 0.2881
 IR Inten    --     12.2206                 2.4678                 8.0192

                     31                     32                     33
                      A                      A                      A
 Frequencies --    448.9000               468.0432               490.9865
 Red. masses --      2.3023                 4.2562                 6.5053
 Frc consts  --      0.2733                 0.5493                 0.9240
 IR Inten    --      9.9166                 2.6841                 3.8359

                     34                     35                     36
                      A                      A                      A
 Frequencies --    519.9934               549.8465               612.5237
 Red. masses --      5.9548                 4.0710                 3.9762
 Frc consts  --      0.9487                 0.7252                 0.8790
 IR Inten    --      4.6599                 2.0352                 4.0470

                     37                     38                     39
                      A                      A                      A
 Frequencies --    657.9718               688.5902               705.1217
 Red. masses --      2.9312                 4.3842                 4.9919
 Frc consts  --      0.7477                 1.2248                 1.4623
 IR Inten    --      2.4835                 3.5624                10.8858

                     40                     41                     42
                      A                      A                      A
 Frequencies --    777.4652               782.2141               814.1715
 Red. masses --      5.4084                 7.0275                 5.5091
 Frc consts  --      1.9261                 2.5334                 2.1516
 IR Inten    --     16.2811                38.0537                18.3112

                     43                     44                     45
                      A                      A                      A
 Frequencies --    823.4817               869.7103               892.5806
 Red. masses --      8.1675                 3.5283                 2.3559
 Frc consts  --      3.2632                 1.5724                 1.1059
 IR Inten    --      9.1719                 0.2272                 4.3267

                     46                     47                     48
                      A                      A                      A
 Frequencies --    933.1094               952.7845               956.2006
 Red. masses --      2.2425                 1.1554                 1.2337
 Frc consts  --      1.1504                 0.6180                 0.6646
 IR Inten    --      5.4326                 7.3980                 4.4944

                     49                     50                     51
                      A                      A                      A
 Frequencies --    962.6137               975.5404               986.7159
 Red. masses --      1.2401                 1.1533                 1.3161
 Frc consts  --      0.6771                 0.6467                 0.7549
 IR Inten    --      3.3756                 5.0310                 7.3395

                     52                     53                     54
                      A                      A                      A
 Frequencies --   1001.9757              1011.9827              1039.7273
 Red. masses --      1.3303                 1.3985                 2.5368
 Frc consts  --      0.7869                 0.8438                 1.6158
 IR Inten    --      7.8994                12.6238                 8.4530

                     55                     56                     57
                      A                      A                      A
 Frequencies --   1065.6170              1093.0380              1163.6401
 Red. masses --      1.8910                 2.2979                 5.4816
 Frc consts  --      1.2651                 1.6175                 4.3732
 IR Inten    --      1.3444                 2.4437                 0.6443

                     58                     59                     60
                      A                      A                      A
 Frequencies --   1183.5625              1191.4163              1223.1457
 Red. masses --      4.8506                 3.6466                 5.0995
 Frc consts  --      4.0034                 3.0498                 4.4951
 IR Inten    --      5.6932                11.5246                 6.1764

                     61                     62                     63
                      A                      A                      A
 Frequencies --   1258.1193              1288.6512              1413.9620
 Red. masses --      5.3381                 6.3362                11.7219
 Frc consts  --      4.9783                 6.1994                13.8078
 IR Inten    --      7.3794                 2.9128               418.1959

                     64                     65                     66
                      A                      A                      A
 Frequencies --   1439.9071              1706.0196              1858.0558
 Red. masses --      9.3748                12.5809                13.0165
 Frc consts  --     11.4519                21.5740                26.4765
 IR Inten    --    107.9578               410.8399               276.9059

                     67                     68                     69
                      A                      A                      A
 Frequencies --   4409.2615              4416.8277              4466.3338
 Red. masses --      1.0591                 1.0603                 1.0319
 Frc consts  --     12.1311                12.1870                12.1286
 IR Inten    --      7.2472                33.4018                 8.9614

                     70                     71                     72
                      A                      A                      A
 Frequencies --   4467.7167              4476.4846              4533.9781
 Red. masses --      1.0322                 1.0322                 1.1107
 Frc consts  --     12.1392                12.1864                13.4528
 IR Inten    --     15.4056                12.8771                 7.0419

                     73                     74                     75
                      A                      A                      A
 Frequencies --   4543.7571              4668.3590              4672.1505
 Red. masses --      1.1087                 1.1064                 1.1066
 Frc consts  --     13.4863                14.2069                14.2318
 IR Inten    --      9.1410                 7.2335                10.0186

                     76                     77                     78
                      A                      A                      A
 Frequencies --   4675.4964              4678.8013              4680.9107
 Red. masses --      1.1067                 1.1064                 1.1070
 Frc consts  --     14.2546                14.2704                14.2908
 IR Inten    --      5.1069                 6.9863                 1.1783

                     79                     80                     81
                      A                      A                      A
 Frequencies --   4690.1725              4855.5773              7258.9092
 Red. masses --      1.1065                 1.0865                 1.0666
 Frc consts  --     14.3414                15.0921                33.1129
 IR Inten    --      2.0026                12.0915               108.5798

 - Thermochemistry -
 -------------------
 Temperature   298.150 Kelvin.  Pressure   1.00000 Atm.
 Atom     1 has atomic number  8 and mass  15.99491

 Molecular mass:   199.09703 amu.
 Principal axes and moments of inertia in atomic units:
                           1         2         3
     Eigenvalues --  1387.913713622.147013820.46971
           X            0.99993   0.00698  -0.00912
           Y           -0.00633   0.99758   0.06924
           Z            0.00958  -0.06918   0.99756
 This molecule is an asymmetric top.
 Rotational symmetry number  1.
 Warning -- assumption of classical behavior for rotation
           may cause significant error
 Rotational temperatures (Kelvin)      0.06241     0.02391     0.02267
 Rotational constants (GHZ):           1.30033     0.49825     0.47239
   20 imaginary frequencies ignored.
 Zero-point vibrational energy     653847.7 (Joules/Mol)
                                  156.27335 (Kcal/Mol)
 Warning -- explicit consideration of  16 degrees of freedom as
           vibrations may cause significant error
 Vibrational temperatures:     93.14   211.08   260.00   427.80   457.37
          (Kelvin)            499.75   537.38   580.76   625.10   642.19
                              645.87   673.41   706.42   748.15   791.11
                              881.28   946.67   990.73  1014.51  1118.60
                             1125.43  1171.41  1184.81  1251.32  1284.22
                             1342.54  1370.84  1375.76  1384.99  1403.59
                             1419.66  1441.62  1456.02  1495.94  1533.19
                             1572.64  1674.22  1702.88  1714.18  1759.83
                             1810.15  1854.08  2034.38  2071.71  2454.58
                             2673.33  6343.94  6354.83  6426.06  6428.05
                             6440.66  6523.38  6537.45  6716.73  6722.18
                             6727.00  6731.75  6734.79  6748.11  6986.09
                            10443.95

 Zero-point correction=                           0.249037 (Hartree/Particle)
 Thermal correction to Energy=                    0.258900
 Thermal correction to Enthalpy=                  0.259844
 Thermal correction to Gibbs Free Energy=         0.213619
 Sum of electronic and zero-point Energies=           -689.297700
 Sum of electronic and thermal Energies=              -689.287837
 Sum of electronic and thermal Enthalpies=            -689.286893
 Sum of electronic and thermal Free Energies=         -689.333119

                     E (Thermal)             CV                S
                      KCal/Mol        Cal/Mol-Kelvin    Cal/Mol-Kelvin
 Total                  162.462             41.531             97.290
 Electronic               0.000              0.000              0.000
 Translational            0.889              2.981             41.771
 Rotational               0.889              2.981             31.330
 Vibrational            160.685             35.569             24.190
 Vibration     1          0.597              1.971              4.307
 Vibration     2          0.617              1.906              2.714
 Vibration     3          0.630              1.866              2.321
 Vibration     4          0.691              1.679              1.432
 Vibration     5          0.704              1.639              1.321
 Vibration     6          0.725              1.581              1.178
 Vibration     7          0.745              1.527              1.065
 Vibration     8          0.769              1.462              0.949
 Vibration     9          0.795              1.395              0.844
 Vibration    10          0.806              1.369              0.807
 Vibration    11          0.808              1.363              0.799
 Vibration    12          0.825              1.321              0.743
 Vibration    13          0.847              1.270              0.681
 Vibration    14          0.875              1.206              0.610
 Vibration    15          0.905              1.140              0.544
 Vibration    16          0.972              1.005              0.429

 Normal termination of Gaussian 16 at Mon Mar  6 10:53:48 2023.
