 Gaussian 16, Revision C.01,
 Gaussian 16:  ES64L-G16RevC.01  3-Jul-2019

 ----------------------------------------------------------------------
 #p pop=(regular,nbo,savenbos) freq=noraman def2svp empiricaldispersion
 =gd3bj output=wfx pbe1pbe
 ----------------------------------------------------------------------

 ----------------------------------------
 FAMNOZ_Complex_7_Ligand_2_NN_Cu_oriented
 ----------------------------------------
 Symbolic Z-matrix:
 Charge =  0 Multiplicity = 1

                         Standard orientation:
 ---------------------------------------------------------------------
 Center     Atomic      Atomic             Coordinates (Angstroms)
 Number     Number       Type             X           Y           Z
 ---------------------------------------------------------------------
      1          6           0       -1.356713   -0.135348    0.085703
      2          6           0        0.726941    0.505569   -0.464634
      3          1           0        1.137737    0.128637   -1.269870
      4          6           0        0.825834   -0.555322    0.685447
      5          1           0        1.176463   -0.131668    1.496713
      6          6           0        1.349740    1.840407   -0.195871
      7          6           0        0.917333    2.626766    0.872747
      8          1           0        0.282763    2.298462    1.467080
      9          6           0        1.443143    3.893878    1.039488
     10          1           0        1.157192    4.438575    1.738377
     11          6           0        2.399603    4.335498    0.151622
     12          1           0        2.768180    5.185285    0.231421
     13          6           0        2.800025    3.484853   -0.863950
     14          1           0        3.460690    3.779587   -1.448184
     15          6           0       -2.840282   -0.203976    0.049822
     16          7           0       -0.728737    0.665467   -0.707432
     17          7           0        2.290913    2.261648   -1.052525
     18          7           0       -3.396153    0.609044   -0.867478
     19          6           0       -3.585349   -1.041977    0.856769
     20          1           0       -3.168572   -1.592765    1.480406
     21          6           0       -4.975581   -1.046568    0.718862
     22          1           0       -5.502727   -1.607794    1.240568
     23          6           0       -5.552711   -0.202010   -0.205946
     24          1           0       -6.477054   -0.174928   -0.310423
     25          6           0       -4.735445    0.601907   -0.975478
     26          1           0       -5.132098    1.166798   -1.599091
     27          6           0        1.689376   -1.736183    0.316029
     28          6           0        1.242348   -2.705690   -0.575435
     29          1           0        0.384997   -2.660610   -0.930921
     30          6           0        3.717103   -2.767325    0.489467
     31          1           0        4.574108   -2.796267    0.850911
     32          7           0        2.910793   -1.768657    0.853691
     33          6           0        2.089643   -3.733175   -0.926061
     34          1           0        1.811130   -4.398956   -1.513186
     35          6           0        3.349792   -3.758273   -0.392461
     36          1           0        3.947907   -4.432717   -0.623176
     37          7           0       -0.587091   -0.922796    0.884604
     38          1           0       -0.877604   -1.532763    1.416640
 ---------------------------------------------------------------------

 SCF Done:  E(RPBE1PBE) =  -966.574134553     A.U. after   14 cycles

 The electronic state is 1-A.
 Alpha  occ. eigenvalues --  -14.40000 -14.38811 -14.38592 -14.37510 -14.34937
 Alpha  occ. eigenvalues --  -10.29379 -10.28302 -10.27418 -10.26515 -10.26286
 Alpha  occ. eigenvalues --  -10.25814 -10.25292 -10.24834 -10.24461 -10.24289
 Alpha  occ. eigenvalues --  -10.24271 -10.23785 -10.23427 -10.22891 -10.22838
 Alpha  occ. eigenvalues --  -10.22544 -10.21895 -10.21712  -1.01611  -0.97082
 Alpha  occ. eigenvalues --   -0.96513  -0.95501  -0.88426  -0.83922  -0.83795
 Alpha  occ. eigenvalues --   -0.83053  -0.82373  -0.80296  -0.79120  -0.75340
 Alpha  occ. eigenvalues --   -0.69392  -0.68199  -0.67445  -0.67354  -0.66206
 Alpha  occ. eigenvalues --   -0.64350  -0.62554  -0.61171  -0.59619  -0.56846
 Alpha  occ. eigenvalues --   -0.55637  -0.54281  -0.52973  -0.51918  -0.50967
 Alpha  occ. eigenvalues --   -0.50408  -0.50079  -0.49931  -0.47176  -0.45900
 Alpha  occ. eigenvalues --   -0.44926  -0.44654  -0.44032  -0.43625  -0.42752
 Alpha  occ. eigenvalues --   -0.42529  -0.41653  -0.40992  -0.39693  -0.39428
 Alpha  occ. eigenvalues --   -0.38897  -0.37321  -0.37174  -0.30808  -0.30743
 Alpha  occ. eigenvalues --   -0.29454  -0.28909  -0.28413  -0.27331  -0.27076
 Alpha  occ. eigenvalues --   -0.26388  -0.25901  -0.24723  -0.22518
 Alpha virt. eigenvalues --   -0.04540  -0.02874  -0.02512  -0.01709  -0.01213
 Alpha virt. eigenvalues --   -0.00359   0.07205   0.07832   0.10245   0.10569
 Alpha virt. eigenvalues --    0.11153   0.12714   0.12823   0.13343   0.13778

 Mulliken charges:
               1
     1  C    0.109117
     2  C    0.215337
     3  H   -0.042058
     4  C    0.279125
     5  H   -0.039642
     6  C    0.005325
     7  C    0.084842
     8  H   -0.099691
     9  C    0.157816
    10  H   -0.090562
    11  C    0.037455
    12  H   -0.086995
    13  C    0.198091
    14  H   -0.078105
    15  C    0.015351
    16  N   -0.231201
    17  N   -0.178995
    18  N   -0.138670
    19  C    0.070017
    20  H   -0.114630
    21  C    0.158153
    22  H   -0.086917
    23  C    0.046901
    24  H   -0.081123
    25  C    0.204282
    26  H   -0.071008
    27  C   -0.051347
    28  C    0.084448
    29  H   -0.103383
    30  C    0.199585
    31  H   -0.076120
    32  N   -0.173785
    33  C    0.164746
    34  H   -0.088757
    35  C    0.037081
    36  H   -0.083849
    37  N   -0.176851
    38  H    0.026015
 Sum of Mulliken charges =  -0.00000

 Dipole moment (field-independent basis, Debye):
    X=             -2.2910    Y=             -3.1392    Z=              2.8731  Tot=              4.8330
 Quadrupole moment (field-independent basis, Debye-Ang):
   XX=           -110.3248   YY=           -110.5470   ZZ=           -131.1399
   XY=              3.6890   XZ=             -5.6142   YZ=              5.8874

  Exact polarizability:     251.742       7.385     210.471      -5.162      -1.175     140.530
 Approx polarizability:     346.957      16.214     307.659     -13.648      -8.792     257.652

 Summary of Natural Population Analysis:

                                       Natural Population
                Natural  -----------------------------------------------
    Atom  No    Charge         Core      Valence    Rydberg      Total
 -----------------------------------------------------------------------
      C    1    0.42859      1.99908     3.53762    0.03471     5.57141
      C    2   -0.03576      1.99886     4.01026    0.02664     6.03576
      H    3    0.21049      0.00000     0.78301    0.00650     0.78951
      C    4   -0.02273      1.99891     3.99960    0.02422     6.02273
      H    5    0.20125      0.00000     0.79406    0.00469     0.79875
      C    6    0.24312      1.99899     3.72802    0.02986     5.75688
      C    7   -0.19625      1.99900     4.18234    0.01491     6.19625
      H    8    0.17608      0.00000     0.82066    0.00326     0.82392
      C    9   -0.12604      1.99912     4.11321    0.01371     6.12604
      H   10    0.17050      0.00000     0.82658    0.00292     0.82950
      C   11   -0.21183      1.99912     4.19977    0.01294     6.21183
      H   12    0.17186      0.00000     0.82500    0.00313     0.82814
      C   13    0.11616      1.99911     3.86402    0.02070     5.88384
      H   14    0.14877      0.00000     0.84839    0.00283     0.85123
      C   15    0.17390      1.99897     3.80229    0.02483     5.82610
      N   16   -0.51084      1.99934     5.49555    0.01595     7.51084
      N   17   -0.48664      1.99930     5.47015    0.01720     7.48664
      N   18   -0.43187      1.99932     5.41630    0.01625     7.43187
      C   19   -0.20371      1.99903     4.19054    0.01414     6.20371
      H   20    0.17237      0.00000     0.82452    0.00311     0.82763
      C   21   -0.12238      1.99912     4.10953    0.01372     6.12238
      H   22    0.17158      0.00000     0.82559    0.00283     0.82842
      C   23   -0.20519      1.99911     4.19325    0.01283     6.20519
      H   24    0.17437      0.00000     0.82247    0.00316     0.82563
      C   25    0.12150      1.99910     3.85906    0.02034     5.87850
      H   26    0.15175      0.00000     0.84532    0.00293     0.84825
      C   27    0.22477      1.99901     3.74812    0.02811     5.77523
      C   28   -0.20932      1.99899     4.19538    0.01495     6.20932
      H   29    0.18186      0.00000     0.81466    0.00348     0.81814
      C   30    0.11957      1.99911     3.86047    0.02085     5.88043
      H   31    0.15082      0.00000     0.84634    0.00284     0.84918
      N   32   -0.49044      1.99929     5.47372    0.01744     7.49044
      C   33   -0.12153      1.99911     4.10849    0.01393     6.12153
      H   34    0.17227      0.00000     0.82479    0.00294     0.82773
      C   35   -0.21324      1.99911     4.20107    0.01305     6.21324
      H   36    0.17428      0.00000     0.82256    0.00316     0.82572
      N   37   -0.62331      1.99915     5.60684    0.01732     7.62331
      H   38    0.35524      0.00000     0.64032    0.00444     0.64476
 =======================================================================
   * Total *    0.00000     45.97928   111.52987    0.49085   158.00000

 ******   30 imaginary frequencies (negative Signs) ******

                      1                      2                      3
                      A                      A                      A
 Frequencies --  -1971.8933             -1454.2070             -1451.0535
 Red. masses --      1.0807                 1.0785                 1.0791
 Frc consts  --      2.4758                 1.3438                 1.3387
 IR Inten    --    128.1196                49.4536                50.0486

                      4                      5                      6
                      A                      A                      A
 Frequencies --  -1447.6585             -1345.0323             -1334.9032
 Red. masses --      1.0814                 1.0398                 1.0421
 Frc consts  --      1.3352                 1.1083                 1.0941
 IR Inten    --     43.3735                 0.0206                 0.2607

                      7                      8                      9
                      A                      A                      A
 Frequencies --  -1332.8103             -1290.1689             -1288.5598
 Red. masses --      1.0410                 1.0231                 1.0242
 Frc consts  --      1.0896                 1.0034                 1.0019
 IR Inten    --      0.4137                 0.0245                 0.0466

                     10                     11                     12
                      A                      A                      A
 Frequencies --  -1276.6609             -1267.8449             -1196.4901
 Red. masses --      1.0230                 1.0457                 1.0333
 Frc consts  --      0.9824                 0.9904                 0.8715
 IR Inten    --      0.4368                32.4245                 0.5596

                     13                     14                     15
                      A                      A                      A
 Frequencies --  -1193.8701             -1184.0624              -953.1406
 Red. masses --      1.0328                 1.0322                 1.0860
 Frc consts  --      0.8673                 0.8527                 0.5813
 IR Inten    --      0.2657                 0.2947                 0.4070

                     16                     17                     18
                      A                      A                      A
 Frequencies --   -949.8044              -943.1595              -884.9121
 Red. masses --      1.0885                 1.0833                 1.1306
 Frc consts  --      0.5786                 0.5677                 0.5216
 IR Inten    --      0.3781                 1.0602                 7.8649

                     19                     20                     21
                      A                      A                      A
 Frequencies --   -877.1471              -868.2385              -775.5712
 Red. masses --      1.1337                 1.1344                 1.0809
 Frc consts  --      0.5139                 0.5038                 0.3831
 IR Inten    --      6.8832                 8.5264                 8.5283

                     22                     23                     24
                      A                      A                      A
 Frequencies --   -772.2284              -768.5944              -679.9301
 Red. masses --      1.0885                 1.0866                 1.1031
 Frc consts  --      0.3824                 0.3782                 0.3005
 IR Inten    --     12.4264                10.3143                11.6401

                     25                     26                     27
                      A                      A                      A
 Frequencies --   -678.8442              -659.3798              -323.0906
 Red. masses --      1.1133                 1.1211                 2.3282
 Frc consts  --      0.3023                 0.2872                 0.1432
 IR Inten    --     10.3992                11.5528                 5.5956

                     28                     29                     30
                      A                      A                      A
 Frequencies --   -292.0920              -205.0317              -108.4488
 Red. masses --      1.6353                 2.6171                 4.3016
 Frc consts  --      0.0822                 0.0648                 0.0298
 IR Inten    --     10.8001                 2.8098                 0.1990

                     31                     32                     33
                      A                      A                      A
 Frequencies --    141.6096               173.9841               183.9016
 Red. masses --      7.9324                 9.5389                10.0309
 Frc consts  --      0.0937                 0.1701                 0.1999
 IR Inten    --      0.8632                 0.3897                 0.6662

                     34                     35                     36
                      A                      A                      A
 Frequencies --    194.5457               236.7357               259.3725
 Red. masses --      9.9136                 5.9816                 6.8946
 Frc consts  --      0.2211                 0.1975                 0.2733
 IR Inten    --      0.7970                 0.5303                 0.7839

                     37                     38                     39
                      A                      A                      A
 Frequencies --    261.7997               285.4797               355.0425
 Red. masses --      8.2618                 8.3155                 5.6254
 Frc consts  --      0.3336                 0.3993                 0.4178
 IR Inten    --      0.7821                 0.7095                 4.9034

                     40                     41                     42
                      A                      A                      A
 Frequencies --    377.7920               429.5094               455.6187
 Red. masses --      2.7088                 3.7267                 6.6252
 Frc consts  --      0.2278                 0.4051                 0.8103
 IR Inten    --      0.2599                 1.9680                 0.9058

                     43                     44                     45
                      A                      A                      A
 Frequencies --    488.1393               520.8396               525.4675
 Red. masses --      8.1622                10.3428                10.4108
 Frc consts  --      1.1459                 1.6531                 1.6937
 IR Inten    --      0.9151                 1.3181                 1.9590

                     46                     47                     48
                      A                      A                      A
 Frequencies --    532.2726               545.0526               599.6662
 Red. masses --      9.7998                 6.7264                 7.4668
 Frc consts  --      1.6358                 1.1774                 1.5820
 IR Inten    --      2.6771                 1.4602                 3.4761

                     49                     50                     51
                      A                      A                      A
 Frequencies --    631.8149               651.5545               666.7867
 Red. masses --      2.5736                 3.6468                 3.3692
 Frc consts  --      0.6053                 0.9121                 0.8826
 IR Inten    --      5.6027                 6.7357                 0.2366

                     52                     53                     54
                      A                      A                      A
 Frequencies --    704.2471               715.5609               731.1312
 Red. masses --      4.2839                 4.5582                 5.1499
 Frc consts  --      1.2518                 1.3751                 1.6220
 IR Inten    --      0.9996                 5.1767                 3.4470

                     55                     56                     57
                      A                      A                      A
 Frequencies --    737.8503               748.6501               756.0875
 Red. masses --      4.9389                 4.1423                 3.5400
 Frc consts  --      1.5842                 1.3679                 1.1923
 IR Inten    --      4.2428                 6.9159                13.4646

                     58                     59                     60
                      A                      A                      A
 Frequencies --    794.7785               808.8303               812.4068
 Red. masses --      3.3548                 4.6340                 5.0890
 Frc consts  --      1.2486                 1.7861                 1.9789
 IR Inten    --     38.6021                 3.2990                 6.2122

                     61                     62                     63
                      A                      A                      A
 Frequencies --    820.3412               834.6201               844.0058
 Red. masses --      4.8188                 7.8208                10.4004
 Frc consts  --      1.9107                 3.2098                 4.3651
 IR Inten    --      3.2823                10.1148                 0.5489

                     64                     65                     66
                      A                      A                      A
 Frequencies --    855.3358               949.0755               971.4932
 Red. masses --      5.9604                 6.3284                 6.3018
 Frc consts  --      2.5692                 3.3585                 3.5043
 IR Inten    --      3.5084                13.0816                 7.6221

                     67                     68                     69
                      A                      A                      A
 Frequencies --    987.8991              1016.7097              1036.4602
 Red. masses --      4.8645                 7.3827                 7.8889
 Frc consts  --      2.7971                 4.4963                 4.9931
 IR Inten    --      0.4908                33.5480                 1.3327

                     70                     71                     72
                      A                      A                      A
 Frequencies --   1042.8294              1050.6995              1077.6958
 Red. masses --      7.7937                 7.7341                 8.8101
 Frc consts  --      4.9937                 5.0306                 6.0287
 IR Inten    --      3.4502                 3.2313                11.8662

                     73                     74                     75
                      A                      A                      A
 Frequencies --   1111.8163              1195.1561              1251.2510
 Red. masses --      8.2545                 7.7138                 7.9260
 Frc consts  --      6.0118                 6.4918                 7.3112
 IR Inten    --     30.2586                13.3121                 1.6858

                     76                     77                     78
                      A                      A                      A
 Frequencies --   1257.3976              1315.1942              1351.0203
 Red. masses --      8.0593                 8.7043                 8.9384
 Frc consts  --      7.5074                 8.8709                 9.6125
 IR Inten    --      6.1159                 1.5904                 0.5493

                     79                     80                     81
                      A                      A                      A
 Frequencies --   1358.3133              1380.8532              1398.0485
 Red. masses --      9.4376                 9.0066                 8.1417
 Frc consts  --     10.2591                10.1183                 9.3758
 IR Inten    --     70.4422                 1.3094                 3.4302

                     82                     83                     84
                      A                      A                      A
 Frequencies --   1407.5305              1423.2436              1440.1415
 Red. masses --      9.0162                 8.3211                10.2211
 Frc consts  --     10.5242                 9.9310                12.4899
 IR Inten    --     45.3346                 4.6231                26.3594

                     85                     86                     87
                      A                      A                      A
 Frequencies --   1442.3086              1518.5581              1614.9677
 Red. masses --     10.2514                10.9304                10.8599
 Frc consts  --     12.5647                14.8507                16.6879
 IR Inten    --     27.1985               106.3765                36.4512

                     88                     89                     90
                      A                      A                      A
 Frequencies --   1644.1607              1652.2488              1654.8731
 Red. masses --     10.5955                10.7543                10.2021
 Frc consts  --     16.8756                17.2975                16.4616
 IR Inten    --     56.7979                88.9794                53.7142

                     91                     92                     93
                      A                      A                      A
 Frequencies --   1664.1987              1689.0831              1699.9990
 Red. masses --     10.6714                10.1971                11.4527
 Frc consts  --     17.4133                17.1406                19.5010
 IR Inten    --     53.8735                31.9611                53.6746

                     94                     95                     96
                      A                      A                      A
 Frequencies --   4367.1114              4376.6374              5020.6872
 Red. masses --      1.0882                 1.0876                 1.0883
 Frc consts  --     12.2281                12.2744                16.1634
 IR Inten    --      2.5247                 0.9625                 0.4422

                     97                     98                     99
                      A                      A                      A
 Frequencies --   5022.8821              5024.1521              5027.7612
 Red. masses --      1.0874                 1.0879                 1.0888
 Frc consts  --     16.1638                16.1789                16.2161
 IR Inten    --      1.2278                 1.7729                 0.0672

                    100                    101                    102
                      A                      A                      A
 Frequencies --   5030.6464              5036.6975              5037.4108
 Red. masses --      1.0893                 1.0886                 1.0918
 Frc consts  --     16.2416                16.2708                16.3239
 IR Inten    --      1.2225                 1.8896                 0.2706

                    103                    104                    105
                      A                      A                      A
 Frequencies --   5038.6356              5043.4961              5045.6309
 Red. masses --      1.0900                 1.0923                 1.0901
 Frc consts  --     16.3043                16.3706                16.3507
 IR Inten    --      1.0421                 0.1012                 0.5656

                    106                    107                    108
                      A                      A                      A
 Frequencies --   5047.7638              5049.2099              5876.5763
 Red. masses --      1.0919                 1.0909                 1.0777
 Frc consts  --     16.3915                16.3865                21.9270
 IR Inten    --      0.4622                 0.6286                62.3965

 - Thermochemistry -
 -------------------
 Temperature   298.150 Kelvin.  Pressure   1.00000 Atm.
 Atom     1 has atomic number  6 and mass  12.00000

 Molecular mass:   301.13275 amu.
 Principal axes and moments of inertia in atomic units:
                           1         2         3
     Eigenvalues --  6077.894949125.45437**********
           X            0.99998   0.00506  -0.00260
           Y           -0.00505   0.99997   0.00552
           Z            0.00263  -0.00550   0.99998
 This molecule is an asymmetric top.
 Rotational symmetry number  1.
 Warning -- assumption of classical behavior for rotation
           may cause significant error
 Rotational temperatures (Kelvin)      0.01425     0.00949     0.00618
 Rotational constants (GHZ):           0.29694     0.19777     0.12871
   30 imaginary frequencies ignored.
 Zero-point vibrational energy     791505.3 (Joules/Mol)
                                  189.17431 (Kcal/Mol)
 Warning -- explicit consideration of  18 degrees of freedom as
           vibrations may cause significant error
 Vibrational temperatures:    203.74   250.32   264.59   279.91   340.61
          (Kelvin)            373.18   376.67   410.74   510.83   543.56
                              617.97   655.53   702.32   749.37   756.03
                              765.82   784.21   862.79   909.04   937.44
                              959.36  1013.25  1029.53  1051.93  1061.60
                             1077.14  1087.84  1143.51  1163.73  1168.87
                             1180.29  1200.83  1214.34  1230.64  1365.51
                             1397.76  1421.37  1462.82  1491.24  1500.40
                             1511.72  1550.56  1599.66  1719.56  1800.27
                             1809.11  1892.27  1943.82  1954.31  1986.74
                             2011.48  2025.12  2047.73  2072.04  2075.16
                             2184.87  2323.58  2365.58  2377.22  2380.99
                             2394.41  2430.21  2445.92  6283.30  6297.01
                             7223.65  7226.81  7228.63  7233.83  7237.98
                             7246.68  7247.71  7249.47  7256.47  7259.54
                             7262.61  7264.69  8455.08

 Zero-point correction=                           0.301468 (Hartree/Particle)
 Thermal correction to Energy=                    0.312986
 Thermal correction to Enthalpy=                  0.313930
 Thermal correction to Gibbs Free Energy=         0.263197
 Sum of electronic and zero-point Energies=           -966.272666
 Sum of electronic and thermal Energies=              -966.261149
 Sum of electronic and thermal Enthalpies=            -966.260205
 Sum of electronic and thermal Free Energies=         -966.310937

                     E (Thermal)             CV                S
                      KCal/Mol        Cal/Mol-Kelvin    Cal/Mol-Kelvin
 Total                  196.401             50.061            106.775
 Electronic               0.000              0.000              0.000
 Translational            0.889              2.981             43.004
 Rotational               0.889              2.981             35.007
 Vibrational            194.624             44.099             28.764
 Vibration     1          0.615              1.912              2.782
 Vibration     2          0.627              1.874              2.392
 Vibration     3          0.631              1.862              2.288
 Vibration     4          0.635              1.847              2.184
 Vibration     5          0.656              1.784              1.827
 Vibration     6          0.668              1.747              1.666
 Vibration     7          0.669              1.743              1.650
 Vibration     8          0.683              1.701              1.501
 Vibration     9          0.731              1.565              1.144
 Vibration    10          0.748              1.517              1.048
 Vibration    11          0.791              1.406              0.860
 Vibration    12          0.814              1.348              0.779
 Vibration    13          0.844              1.276              0.688
 Vibration    14          0.876              1.204              0.608
 Vibration    15          0.880              1.194              0.597
 Vibration    16          0.887              1.179              0.582
 Vibration    17          0.900              1.151              0.555
 Vibration    18          0.958              1.033              0.450

 1\1\GINC-JST013\Freq\RPBE1PBE\def2SVP\C18H15N5\LAPLAZA\04-Mar-2023\0\\
 #p pop=(regular,nbo,savenbos) freq=noraman def2svp empiricaldispersion
 =gd3bj output=wfx pbe1pbe\\FAMNOZ_Complex_7_Ligand_2_NN_Cu_oriented\\0
 ,1\C,2.4315026,1.44944429,-0.01152714\C,0.95333885,3.14349014,-0.03385
 334\H,0.51888547,3.37751282,-0.87985561\C,2.39856006,3.7511814,-0.0339
 5818\H,2.55663425,4.2282014,0.80749339\C,0.05549682,3.55861826,1.09018
 151\C,0.40725711,3.30151757,2.41586813\H,1.2347136,2.92835587,2.615263
 82\C,-0.48362613,3.60944704,3.42649048\H,-0.27249647,3.43271086,4.3159

 Normal termination of Gaussian 16 at Sat Mar  4 12:33:56 2023.
