 Gaussian 16, Revision C.01,
 Gaussian 16:  ES64L-G16RevC.01  3-Jul-2019

 ----------------------------------------------------------------------
 #p pop=(regular,nbo,savenbos) freq=noraman def2svp empiricaldispersion
 =gd3bj output=wfx pbe1pbe
 ----------------------------------------------------------------------

 ----------------------------------------
 FEDJON_Complex_2_Ligand_0_ON_Cu_oriented
 ----------------------------------------
 Symbolic Z-matrix:
 Charge = -1 Multiplicity = 1

                         Standard orientation:
 ---------------------------------------------------------------------
 Center     Atomic      Atomic             Coordinates (Angstroms)
 Number     Number       Type             X           Y           Z
 ---------------------------------------------------------------------
      1          7           0        1.152758   -1.309758    0.057838
      2          1           0        1.824432   -1.508733   -0.500803
      3          1           0        1.381091   -1.327323    0.987918
      4          6           0        0.620180    0.006215   -0.344317
      5          1           0        0.856179    0.086290   -1.260629
      6          6           0        1.381040    1.175195    0.149220
      7          1           0        2.279469    1.110014   -0.116933
      8          1           0        1.365596    1.125373    1.141940
      9          1           0        1.039123    2.024596   -0.063780
     10          6           0       -0.884093    0.042117   -0.050537
     11          8           0       -1.479031    1.125191    0.005578
     12          8           0       -1.460714   -1.085575    0.104575
 ---------------------------------------------------------------------

 SCF Done:  E(RPBE1PBE) =  -322.457483502     A.U. after   14 cycles

 The electronic state is 1-A.
 Alpha  occ. eigenvalues --  -18.90964 -18.89441 -14.17915 -10.07314 -10.05174
 Alpha  occ. eigenvalues --  -10.02105  -0.80308  -0.74646  -0.69521  -0.62272
 Alpha  occ. eigenvalues --   -0.48842  -0.38988  -0.32774  -0.30308  -0.27294
 Alpha  occ. eigenvalues --   -0.25896  -0.20732  -0.20106  -0.16518  -0.14916
 Alpha  occ. eigenvalues --   -0.07960  -0.01982  -0.01593   0.00947
 Alpha virt. eigenvalues --    0.21299   0.26812   0.27062   0.29364   0.30942
 Alpha virt. eigenvalues --    0.32361   0.34081   0.42974   0.43671   0.47599
 Alpha virt. eigenvalues --    0.55204   0.58818   0.64279   0.64560   0.67931

 Mulliken charges:
               1
     1  N   -0.148119
     2  H    0.015337
     3  H    0.048250
     4  C   -0.052741
     5  H   -0.071496
     6  C    0.204329
     7  H   -0.104517
     8  H   -0.053401
     9  H   -0.059335
    10  C    0.114064
    11  O   -0.431925
    12  O   -0.460446
 Sum of Mulliken charges =  -1.00000

 Dipole moment (field-independent basis, Debye):
    X=              7.3967    Y=              0.6293    Z=             -0.3545  Tot=              7.4319
 Quadrupole moment (field-independent basis, Debye-Ang):
   XX=            -48.8366   YY=            -47.8848   ZZ=            -35.0980
   XY=             -1.2533   XZ=              0.4300   YZ=             -0.2466

  Exact polarizability:      43.485       1.200      47.540      -0.540      -0.779      32.887
 Approx polarizability:      53.221       1.799      71.599      -1.571      -2.112      44.786

 Summary of Natural Population Analysis:

                                       Natural Population
                Natural  -----------------------------------------------
    Atom  No    Charge         Core      Valence    Rydberg      Total
 -----------------------------------------------------------------------
      N    1   -0.81491      1.99945     5.79465    0.02082     7.81491
      H    2    0.30203      0.00000     0.69115    0.00682     0.69797
      H    3    0.32242      0.00000     0.67015    0.00743     0.67758
      C    4   -0.08301      1.99891     4.06336    0.02075     6.08301
      H    5    0.15240      0.00000     0.84237    0.00523     0.84760
      C    6   -0.55925      1.99912     4.54714    0.01299     6.55925
      H    7    0.14934      0.00000     0.84516    0.00550     0.85066
      H    8    0.17514      0.00000     0.82026    0.00460     0.82486
      H    9    0.18542      0.00000     0.80761    0.00697     0.81458
      C   10    0.76517      1.99946     3.16212    0.07325     5.23483
      O   11   -0.79964      1.99974     6.79008    0.00982     8.79964
      O   12   -0.79510      1.99977     6.78681    0.00852     8.79510
 =======================================================================
   * Total *   -1.00000     11.99645    35.82086    0.18268    48.00000

 ******    8 imaginary frequencies (negative Signs) ******

                      1                      2                      3
                      A                      A                      A
 Frequencies --  -1514.7352             -1467.3397             -1155.2043
 Red. masses --      1.0848                 1.0274                 1.0679
 Frc consts  --      1.4665                 1.3033                 0.8397
 IR Inten    --    106.7472                 1.5611                 4.4606

                      4                      5                      6
                      A                      A                      A
 Frequencies --  -1084.7231             -1068.0275              -791.2522
 Red. masses --      1.1181                 1.0985                 1.1767
 Frc consts  --      0.7751                 0.7382                 0.4341
 IR Inten    --      9.8189                67.2899                 0.8693

                      7                      8                      9
                      A                      A                      A
 Frequencies --   -592.8779              -451.5383               252.6628
 Red. masses --      1.1622                 1.9963                 1.1139
 Frc consts  --      0.2407                 0.2398                 0.0419
 IR Inten    --     24.4044                10.8937                23.6597

                     10                     11                     12
                      A                      A                      A
 Frequencies --    332.1967               467.7062               543.2113
 Red. masses --      7.4786                 6.9865                 3.4003
 Frc consts  --      0.4863                 0.9004                 0.5912
 IR Inten    --      0.2661                 3.5327                 6.6608

                     13                     14                     15
                      A                      A                      A
 Frequencies --    585.5556               665.2819               810.5836
 Red. masses --      3.3843                 3.7614                 3.8925
 Frc consts  --      0.6837                 0.9809                 1.5069
 IR Inten    --     11.5188                13.6473                21.1670

                     16                     17                     18
                      A                      A                      A
 Frequencies --    870.2855               917.3437              1062.7589
 Red. masses --      8.0810                 1.8104                 1.2711
 Frc consts  --      3.6061                 0.8976                 0.8459
 IR Inten    --     18.8125                10.8274                 8.4590

                     19                     20                     21
                      A                      A                      A
 Frequencies --   1101.9688              1156.3391              1208.5887
 Red. masses --      1.8801                 3.0312                 1.5199
 Frc consts  --      1.3451                 2.3880                 1.3080
 IR Inten    --     31.3722                14.7784                 9.3492

                     22                     23                     24
                      A                      A                      A
 Frequencies --   1292.7229              1438.5198              1771.1907
 Red. masses --      2.8654                10.9564                12.8597
 Frc consts  --      2.8213                13.3583                23.7690
 IR Inten    --     38.5588               208.2928               425.2157

                     25                     26                     27
                      A                      A                      A
 Frequencies --   4160.6693              4322.7597              4725.9883
 Red. masses --      1.0699                 1.0652                 1.0867
 Frc consts  --     10.9124                11.7270                14.3005
 IR Inten    --     30.8236                 1.5359                20.8358

                     28                     29                     30
                      A                      A                      A
 Frequencies --   4796.7262              4939.3394              5244.7908
 Red. masses --      1.0636                 1.1082                 1.0783
 Frc consts  --     14.4189                15.9298                17.4768
 IR Inten    --     27.0920                11.9388                 3.9916

 - Thermochemistry -
 -------------------
 Temperature   298.150 Kelvin.  Pressure   1.00000 Atm.
 Atom     1 has atomic number  7 and mass  14.00307

 Molecular mass:    88.03985 amu.
 Principal axes and moments of inertia in atomic units:
                           1         2         3
     Eigenvalues --   344.46208 514.78569 815.62344
           X            0.99928   0.03767   0.00469
           Y           -0.03769   0.99928   0.00439
           Z           -0.00452  -0.00456   0.99998
 This molecule is an asymmetric top.
 Rotational symmetry number  1.
 Rotational temperatures (Kelvin)      0.25145     0.16825     0.10619
 Rotational constants (GHZ):           5.23930     3.50581     2.21271
    8 imaginary frequencies ignored.
 Zero-point vibrational energy     255206.5 (Joules/Mol)
                                   60.99581 (Kcal/Mol)
 Warning -- explicit consideration of   5 degrees of freedom as
           vibrations may cause significant error
 Vibrational temperatures:    363.53   477.96   672.92   781.56   842.48
          (Kelvin)            957.19  1166.25  1252.15  1319.85  1529.07
                             1585.49  1663.71  1738.89  1859.94  2069.71
                             2548.35  5986.28  6219.49  6799.64  6901.42
                             7106.61  7546.08

 Zero-point correction=                           0.097203 (Hartree/Particle)
 Thermal correction to Energy=                    0.101934
 Thermal correction to Enthalpy=                  0.102878
 Thermal correction to Gibbs Free Energy=         0.068832
 Sum of electronic and zero-point Energies=           -322.360280
 Sum of electronic and thermal Energies=              -322.355550
 Sum of electronic and thermal Enthalpies=            -322.354605
 Sum of electronic and thermal Free Energies=         -322.388652

                     E (Thermal)             CV                S
                      KCal/Mol        Cal/Mol-Kelvin    Cal/Mol-Kelvin
 Total                   63.965             16.718             71.657
 Electronic               0.000              0.000              0.000
 Translational            0.889              2.981             39.338
 Rotational               0.889              2.981             26.472
 Vibrational             62.187             10.756              5.846
 Vibration     1          0.664              1.758              1.712
 Vibration     2          0.714              1.611              1.249
 Vibration     3          0.825              1.322              0.744
 Vibration     4          0.898              1.155              0.558
 Vibration     5          0.943              1.063              0.475

 Normal termination of Gaussian 16 at Mon Mar  6 10:24:02 2023.
