 Gaussian 16, Revision C.01,
 Gaussian 16:  ES64L-G16RevC.01  3-Jul-2019

 ----------------------------------------------------------------------
 #p pop=(regular,nbo,savenbos) freq=noraman def2svp empiricaldispersion
 =gd3bj output=wfx pbe1pbe
 ----------------------------------------------------------------------

 ----------------------------------------
 FEWDUG_Complex_0_Ligand_0_OO_Cu_oriented
 ----------------------------------------
 Symbolic Z-matrix:
 Charge = -1 Multiplicity = 1

                         Standard orientation:
 ---------------------------------------------------------------------
 Center     Atomic      Atomic             Coordinates (Angstroms)
 Number     Number       Type             X           Y           Z
 ---------------------------------------------------------------------
      1          8           0        2.736423   -2.222185   -0.012251
      2          8           0        0.012725   -2.059676   -0.343934
      3          6           0        0.207027   -0.789305   -0.347703
      4          6           0        1.457981   -0.185402   -0.172465
      5          6           0        1.628585    1.329335   -0.185164
      6          6           0       -0.869248    1.501033   -0.307101
      7          6           0       -1.064837    0.007482   -0.598725
      8          6           0        2.600274   -0.946878   -0.066596
      9          6           0        1.918246    1.863321    1.206976
     10          6           0       -2.288742   -0.620852    0.091616
     11          6           0       -3.579852   -0.003528   -0.427273
     12          6           0       -2.197850   -0.543813    1.586671
     13          1           0       -0.884092    1.718920    0.627714
     14          1           0       -1.239649   -0.093712   -1.561523
     15          1           0        2.733669    1.399633    1.604223
     16          1           0        1.160693    1.804527    1.819402
     17          1           0       -2.301155   -1.561511   -0.172305
     18          1           0       -3.666128    0.878961   -0.204282
     19          1           0       -4.368498   -0.498341    0.033460
     20          1           0       -3.637065   -0.212005   -1.511600
     21          1           0       -2.960492   -0.974336    2.018119
     22          1           0       -1.454052   -1.036672    1.988268
     23          1           0       -2.239178    0.337264    1.896391
     24          6           0        0.446733    2.011269   -0.864980
     25          1           0        0.450678    2.977954   -0.755494
     26          1           0        0.551977    1.815225   -1.953750
     27          1           0        2.042056    2.850915    1.149305
     28          1           0        3.465084   -0.443242   -0.112068
     29          1           0       -1.598345    2.033103   -0.728719
     30          1           0        2.401414    1.522227   -0.779178
 ---------------------------------------------------------------------

 SCF Done:  E(RPBE1PBE) =  -578.620291897     A.U. after   15 cycles

 The electronic state is 1-A.
 Alpha  occ. eigenvalues --  -18.96136 -18.96031 -10.10116 -10.08387 -10.08376
 Alpha  occ. eigenvalues --  -10.08297 -10.07981 -10.07706 -10.06891 -10.06653
 Alpha  occ. eigenvalues --  -10.06111 -10.05116 -10.01829  -0.80811  -0.78616
 Alpha  occ. eigenvalues --   -0.72315  -0.70119  -0.64567  -0.60901  -0.58936
 Alpha  occ. eigenvalues --   -0.58003  -0.52650  -0.47892  -0.45535  -0.43382
 Alpha  occ. eigenvalues --   -0.37319  -0.36753  -0.34633  -0.33909  -0.32949
 Alpha  occ. eigenvalues --   -0.31811  -0.31509  -0.29336  -0.28463  -0.27865
 Alpha  occ. eigenvalues --   -0.26675  -0.24922  -0.24508  -0.23033  -0.22445
 Alpha  occ. eigenvalues --   -0.21108  -0.20731  -0.20187  -0.18340  -0.18051
 Alpha  occ. eigenvalues --   -0.16470  -0.13861  -0.06395  -0.02353  -0.02114
 Alpha virt. eigenvalues --    0.16485   0.18344   0.19826   0.21636   0.23517
 Alpha virt. eigenvalues --    0.24104   0.24526   0.25313   0.26386   0.27615
 Alpha virt. eigenvalues --    0.28604   0.29519   0.29824   0.30551   0.31342

 Mulliken charges:
               1
     1  O   -0.387728
     2  O   -0.380982
     3  C    0.126519
     4  C   -0.251281
     5  C   -0.057002
     6  C    0.152712
     7  C   -0.046357
     8  C    0.176098
     9  C    0.204887
    10  C   -0.102521
    11  C    0.111167
    12  C    0.217403
    13  H   -0.061369
    14  H   -0.052463
    15  H   -0.015803
    16  H   -0.050014
    17  H   -0.039871
    18  H   -0.064928
    19  H   -0.023848
    20  H    0.010470
    21  H   -0.069451
    22  H   -0.005985
    23  H   -0.072872
    24  C    0.059539
    25  H   -0.074629
    26  H   -0.001853
    27  H   -0.061619
    28  H   -0.124052
    29  H   -0.057991
    30  H   -0.056178
 Sum of Mulliken charges =  -1.00000

 Dipole moment (field-independent basis, Debye):
    X=             -5.4105    Y=              7.9649    Z=              0.5651  Tot=              9.6453
 Quadrupole moment (field-independent basis, Debye-Ang):
   XX=           -103.5429   YY=           -106.3776   ZZ=            -82.6644
   XY=             12.7666   XZ=             -0.6330   YZ=             -1.4385

  Exact polarizability:     144.881       0.370     117.807       4.412      -0.977      92.857
 Approx polarizability:     186.944      -2.972     179.374       6.569      -0.665     132.589

 Summary of Natural Population Analysis:

                                       Natural Population
                Natural  -----------------------------------------------
    Atom  No    Charge         Core      Valence    Rydberg      Total
 -----------------------------------------------------------------------
      O    1   -0.66784      1.99980     6.65890    0.00914     8.66784
      O    2   -0.69800      1.99978     6.68969    0.00854     8.69800
      C    3    0.47521      1.99892     3.48006    0.04581     5.52479
      C    4   -0.36163      1.99882     4.34029    0.02252     6.36163
      C    5   -0.21059      1.99901     4.19475    0.01684     6.21059
      C    6   -0.38320      1.99909     4.36753    0.01658     6.38320
      C    7   -0.27446      1.99891     4.25371    0.02184     6.27446
      C    8    0.32267      1.99900     3.63841    0.03992     5.67733
      C    9   -0.57482      1.99917     4.56474    0.01090     6.57482
      C   10   -0.17635      1.99903     4.15952    0.01780     6.17635
      C   11   -0.57194      1.99909     4.56172    0.01113     6.57194
      C   12   -0.56223      1.99912     4.55118    0.01192     6.56223
      H   13    0.17498      0.00000     0.82093    0.00409     0.82502
      H   14    0.20014      0.00000     0.79448    0.00538     0.79986
      H   15    0.20123      0.00000     0.79567    0.00310     0.79877
      H   16    0.18296      0.00000     0.81371    0.00334     0.81704
      H   17    0.20389      0.00000     0.78632    0.00978     0.79611
      H   18    0.15364      0.00000     0.84289    0.00347     0.84636
      H   19    0.19215      0.00000     0.80461    0.00324     0.80785
      H   20    0.20165      0.00000     0.79557    0.00278     0.79835
      H   21    0.18066      0.00000     0.81620    0.00314     0.81934
      H   22    0.21043      0.00000     0.78646    0.00311     0.78957
      H   23    0.16371      0.00000     0.83319    0.00311     0.83629
      C   24   -0.38163      1.99912     4.36735    0.01515     6.38163
      H   25    0.17220      0.00000     0.82356    0.00424     0.82780
      H   26    0.20624      0.00000     0.78998    0.00378     0.79376
      H   27    0.17152      0.00000     0.82404    0.00443     0.82848
      H   28    0.08087      0.00000     0.91241    0.00672     0.91913
      H   29    0.18288      0.00000     0.81292    0.00419     0.81712
      H   30    0.18566      0.00000     0.80788    0.00646     0.81434
 =======================================================================
   * Total *   -1.00000     25.98886    73.68867    0.32246   100.00000

 ******   19 imaginary frequencies (negative Signs) ******

                      1                      2                      3
                      A                      A                      A
 Frequencies --  -1448.6352             -1434.5148             -1308.7372
 Red. masses --      1.0157                 1.0347                 1.0632
 Frc consts  --      1.2558                 1.2545                 1.0729
 IR Inten    --      0.7064                 5.9669                 4.6834

                      4                      5                      6
                      A                      A                      A
 Frequencies --  -1142.1013             -1124.5295             -1057.1301
 Red. masses --      1.0125                 1.0514                 1.0357
 Frc consts  --      0.7781                 0.7833                 0.6819
 IR Inten    --      0.4459                 3.6209                 4.8068

                      7                      8                      9
                      A                      A                      A
 Frequencies --   -952.6179              -836.7887              -817.9308
 Red. masses --      1.0461                 1.0660                 1.0651
 Frc consts  --      0.5593                 0.4398                 0.4198
 IR Inten    --     16.4522                 4.3504                 2.9065

                     10                     11                     12
                      A                      A                      A
 Frequencies --   -764.1974              -646.2650              -560.1155
 Red. masses --      1.0763                 1.1620                 1.1383
 Frc consts  --      0.3703                 0.2859                 0.2104
 IR Inten    --      0.4873                 0.1580                 2.4797

                     13                     14                     15
                      A                      A                      A
 Frequencies --   -428.9642              -347.1229              -298.0948
 Red. masses --      1.4074                 1.7421                 1.8176
 Frc consts  --      0.1526                 0.1237                 0.0952
 IR Inten    --      1.2900                 6.9814                 0.8155

                     16                     17                     18
                      A                      A                      A
 Frequencies --   -276.8601              -240.0729              -148.6291
 Red. masses --      2.1287                 2.3847                 1.9667
 Frc consts  --      0.0961                 0.0810                 0.0256
 IR Inten    --      0.0696                 3.2758                 0.6323

                     19                     20                     21
                      A                      A                      A
 Frequencies --    -97.4329               164.5321               215.1246
 Red. masses --      3.0342                 4.1577                 4.0592
 Frc consts  --      0.0170                 0.0663                 0.1107
 IR Inten    --      1.3473                 2.2099                 1.7423

                     22                     23                     24
                      A                      A                      A
 Frequencies --    305.7383               348.0662               398.0767
 Red. masses --      3.3606                 2.7760                 2.7386
 Frc consts  --      0.1851                 0.1981                 0.2557
 IR Inten    --      1.4939                 1.6679                 2.8351

                     25                     26                     27
                      A                      A                      A
 Frequencies --    431.3736               496.0049               518.9714
 Red. masses --      2.5418                 3.7608                 3.3917
 Frc consts  --      0.2787                 0.5451                 0.5382
 IR Inten    --      5.8648                 9.2605                11.8858

                     28                     29                     30
                      A                      A                      A
 Frequencies --    557.5449               584.7996               611.5855
 Red. masses --      2.7904                 2.6370                 1.1925
 Frc consts  --      0.5111                 0.5313                 0.2628
 IR Inten    --      6.0206                 3.3917                13.0438

                     31                     32                     33
                      A                      A                      A
 Frequencies --    628.9250               655.6032               684.1647
 Red. masses --      2.4631                 1.8845                 2.3168
 Frc consts  --      0.5740                 0.4772                 0.6389
 IR Inten    --     10.8112                 9.6616                 8.6520

                     34                     35                     36
                      A                      A                      A
 Frequencies --    729.5546               760.7460               779.8845
 Red. masses --      2.4284                 2.6022                 2.3845
 Frc consts  --      0.7615                 0.8873                 0.8545
 IR Inten    --      0.8174                 3.7186                 3.7075

                     37                     38                     39
                      A                      A                      A
 Frequencies --    798.6771               837.6882               868.7101
 Red. masses --      1.8096                 2.3715                 1.8274
 Frc consts  --      0.6801                 0.9805                 0.8125
 IR Inten    --      1.8177                 8.0261                 4.9976

                     40                     41                     42
                      A                      A                      A
 Frequencies --    871.5611               893.3683               895.3837
 Red. masses --      1.6591                 1.7976                 2.3487
 Frc consts  --      0.7426                 0.8453                 1.1094
 IR Inten    --     15.7534                 7.4591                 0.7490

                     43                     44                     45
                      A                      A                      A
 Frequencies --    927.6962               961.4851               968.1149
 Red. masses --      3.1642                 1.7171                 1.6243
 Frc consts  --      1.6045                 0.9352                 0.8970
 IR Inten    --      6.8896                 5.9558                 3.3100

                     46                     47                     48
                      A                      A                      A
 Frequencies --    989.8243              1011.9688              1063.5956
 Red. masses --      2.4669                 2.0507                 1.3080
 Frc consts  --      1.4240                 1.2373                 0.8718
 IR Inten    --      1.1554                 5.4601                 9.3618

                     49                     50                     51
                      A                      A                      A
 Frequencies --   1084.3490              1111.5006              1124.9906
 Red. masses --      1.8359                 1.5969                 2.0410
 Frc consts  --      1.2719                 1.1624                 1.5219
 IR Inten    --      2.8398                 9.4340                 2.8607

                     52                     53                     54
                      A                      A                      A
 Frequencies --   1152.9629              1163.2091              1192.6821
 Red. masses --      2.1042                 1.4591                 1.5586
 Frc consts  --      1.6480                 1.1632                 1.3063
 IR Inten    --      7.9309                 5.5852                 5.9122

                     55                     56                     57
                      A                      A                      A
 Frequencies --   1211.0787              1224.5176              1237.2752
 Red. masses --      1.4551                 3.5779                 2.7498
 Frc consts  --      1.2574                 3.1609                 2.4802
 IR Inten    --      5.0721                 1.8271                 4.0018

                     58                     59                     60
                      A                      A                      A
 Frequencies --   1242.6361              1254.9419              1324.3540
 Red. masses --      2.0487                 3.0176                 2.4598
 Frc consts  --      1.8639                 2.8000                 2.5419
 IR Inten    --     12.7456                 9.2802                30.4607

                     61                     62                     63
                      A                      A                      A
 Frequencies --   1344.7134              1351.0718              1362.2815
 Red. masses --      1.5873                 1.7849                 1.4540
 Frc consts  --      1.6911                 1.9197                 1.5898
 IR Inten    --      5.0976                33.3083                 1.5594

                     64                     65                     66
                      A                      A                      A
 Frequencies --   1408.8942              1414.0441              1601.7956
 Red. masses --      1.0745                11.0610                11.4541
 Frc consts  --      1.2566                13.0307                17.3151
 IR Inten    --      9.1766                65.3582               263.6456

                     67                     68                     69
                      A                      A                      A
 Frequencies --   1646.2334              2991.7431              3048.8244
 Red. masses --     11.1669                 1.0779                 1.0700
 Frc consts  --     17.8305                 5.6841                 5.8601
 IR Inten    --    656.3415                49.3843                33.6847

                     70                     71                     72
                      A                      A                      A
 Frequencies --   3693.9101              3898.1543              4068.6032
 Red. masses --      1.0795                 1.0586                 1.0848
 Frc consts  --      8.6787                 9.4776                10.5798
 IR Inten    --     50.8028                16.0488               184.0481

                     73                     74                     75
                      A                      A                      A
 Frequencies --   4143.0269              4157.3743              4177.2126
 Red. masses --      1.0779                 1.0929                 1.0869
 Frc consts  --     10.9009                11.1290                11.1741
 IR Inten    --     48.4735                56.8431                43.3621

                     76                     77                     78
                      A                      A                      A
 Frequencies --   4305.0786              4335.2947              4406.0327
 Red. masses --      1.0859                 1.0558                 1.0872
 Frc consts  --     11.8580                11.6917                12.4354
 IR Inten    --     14.7272                25.1212                 2.5759

                     79                     80                     81
                      A                      A                      A
 Frequencies --   4417.6613              4423.7818              4439.8497
 Red. masses --      1.0954                 1.0898                 1.0865
 Frc consts  --     12.5957                12.5654                12.6185
 IR Inten    --     25.8553                 9.3955                41.5406

                     82                     83                     84
                      A                      A                      A
 Frequencies --   4614.0094              4944.0607              5237.7229
 Red. masses --      1.0887                 1.0914                 1.0871
 Frc consts  --     13.6555                15.7175                17.5711
 IR Inten    --      8.9397                 9.1040                 5.1886

 - Thermochemistry -
 -------------------
 Temperature   298.150 Kelvin.  Pressure   1.00000 Atm.
 Atom     1 has atomic number  8 and mass  15.99491

 Molecular mass:   181.12285 amu.
 Principal axes and moments of inertia in atomic units:
                           1         2         3
     Eigenvalues --  1606.107922874.408783778.58043
           X            0.99877   0.04948   0.00132
           Y           -0.04948   0.99877  -0.00438
           Z           -0.00153   0.00431   0.99999
 This molecule is an asymmetric top.
 Rotational symmetry number  1.
 Warning -- assumption of classical behavior for rotation
           may cause significant error
 Rotational temperatures (Kelvin)      0.05393     0.03013     0.02292
 Rotational constants (GHZ):           1.12367     0.62787     0.47762
   19 imaginary frequencies ignored.
 Zero-point vibrational energy     692127.3 (Joules/Mol)
                                  165.42239 (Kcal/Mol)
 Warning -- explicit consideration of  11 degrees of freedom as
           vibrations may cause significant error
 Vibrational temperatures:    236.73   309.52   439.89   500.79   572.74
          (Kelvin)            620.65   713.64   746.68   802.18   841.40
                              879.94   904.88   943.27   984.36  1049.67
                             1094.54  1122.08  1149.12  1205.25  1249.88
                             1253.98  1285.36  1288.26  1334.75  1383.36
                             1392.90  1424.14  1456.00  1530.28  1560.14
                             1599.20  1618.61  1658.86  1673.60  1716.00
                             1742.47  1761.81  1780.16  1787.88  1805.58
                             1905.45  1934.74  1943.89  1960.02  2027.08
                             2034.49  2304.63  2368.56  4304.45  4386.58
                             5314.71  5608.57  5853.81  5960.89  5981.53
                             6010.08  6194.05  6237.52  6339.30  6356.03
                             6364.84  6387.95  6638.53  7113.40  7535.92

 Zero-point correction=                           0.263617 (Hartree/Particle)
 Thermal correction to Energy=                    0.271464
 Thermal correction to Enthalpy=                  0.272408
 Thermal correction to Gibbs Free Energy=         0.230417
 Sum of electronic and zero-point Energies=           -578.356675
 Sum of electronic and thermal Energies=              -578.348828
 Sum of electronic and thermal Enthalpies=            -578.347884
 Sum of electronic and thermal Free Energies=         -578.389875

                     E (Thermal)             CV                S
                      KCal/Mol        Cal/Mol-Kelvin    Cal/Mol-Kelvin
 Total                  170.346             35.305             88.378
 Electronic               0.000              0.000              0.000
 Translational            0.889              2.981             41.489
 Rotational               0.889              2.981             31.234
 Vibrational            168.569             29.344             15.655
 Vibration     1          0.623              1.886              2.497
 Vibration     2          0.645              1.818              2.000
 Vibration     3          0.696              1.663              1.385
 Vibration     4          0.726              1.579              1.175
 Vibration     5          0.764              1.474              0.970
 Vibration     6          0.792              1.402              0.854
 Vibration     7          0.852              1.259              0.668
 Vibration     8          0.874              1.208              0.612
 Vibration     9          0.913              1.123              0.529
 Vibration    10          0.942              1.064              0.477
 Vibration    11          0.971              1.007              0.430

 Normal termination of Gaussian 16 at Mon Mar  6 10:51:18 2023.
