 Gaussian 16, Revision C.01,
 Gaussian 16:  ES64L-G16RevC.01  3-Jul-2019

 ----------------------------------------------------------------------
 #p pop=(regular,nbo,savenbos) freq=noraman def2svp empiricaldispersion
 =gd3bj output=wfx pbe1pbe
 ----------------------------------------------------------------------

 ----------------------------------------
 FEWDUG_Complex_0_Ligand_1_OO_Cu_oriented
 ----------------------------------------
 Symbolic Z-matrix:
 Charge = -1 Multiplicity = 1

                         Standard orientation:
 ---------------------------------------------------------------------
 Center     Atomic      Atomic             Coordinates (Angstroms)
 Number     Number       Type             X           Y           Z
 ---------------------------------------------------------------------
      1          8           0       -0.012729   -2.059677   -0.343934
      2          6           0       -0.207030   -0.789306   -0.347705
      3          6           0       -1.457983   -0.185401   -0.172469
      4          6           0       -1.628584    1.329337   -0.185169
      5          6           0        0.869248    1.501030   -0.307103
      6          6           0        1.064836    0.007480   -0.598725
      7          6           0       -2.600277   -0.946875   -0.066600
      8          6           0       -1.918248    1.863323    1.206970
      9          6           0        2.288740   -0.620855    0.091618
     10          6           0        3.579851   -0.003534   -0.427270
     11          6           0        2.197846   -0.543817    1.586673
     12          1           0        0.884092    1.718918    0.627712
     13          1           0        1.239648   -0.093716   -1.561523
     14          1           0       -2.733671    1.399637    1.604216
     15          1           0       -1.160695    1.804529    1.819398
     16          1           0        2.301152   -1.561516   -0.172302
     17          1           0        3.666128    0.878955   -0.204279
     18          1           0        4.368495   -0.498349    0.033464
     19          1           0        3.637065   -0.212012   -1.511597
     20          1           0        2.960486   -0.974339    2.018122
     21          1           0        1.454046   -1.036673    1.988269
     22          1           0        2.239174    0.337262    1.896392
     23          8           0       -2.736428   -2.222182   -0.012255
     24          6           0       -0.446730    2.011267   -0.864984
     25          1           0       -0.450675    2.977953   -0.755500
     26          1           0       -0.551791    1.815323   -1.953583
     27          1           0       -2.042056    2.850918    1.149297
     28          1           0       -3.465086   -0.443238   -0.112074
     29          1           0        1.598347    2.033100   -0.728721
     30          1           0       -2.401412    1.522229   -0.779184
 ---------------------------------------------------------------------

 SCF Done:  E(RPBE1PBE) =  -578.620295876     A.U. after   15 cycles

 The electronic state is 1-A.
 Alpha  occ. eigenvalues --  -18.96136 -18.96031 -10.10115 -10.08387 -10.08376
 Alpha  occ. eigenvalues --  -10.08295 -10.07981 -10.07706 -10.06890 -10.06653
 Alpha  occ. eigenvalues --  -10.06111 -10.05116 -10.01829  -0.80811  -0.78616
 Alpha  occ. eigenvalues --   -0.72315  -0.70119  -0.64567  -0.60901  -0.58936
 Alpha  occ. eigenvalues --   -0.58003  -0.52650  -0.47892  -0.45535  -0.43383
 Alpha  occ. eigenvalues --   -0.37319  -0.36753  -0.34634  -0.33909  -0.32950
 Alpha  occ. eigenvalues --   -0.31811  -0.31509  -0.29336  -0.28463  -0.27865
 Alpha  occ. eigenvalues --   -0.26675  -0.24922  -0.24508  -0.23034  -0.22445
 Alpha  occ. eigenvalues --   -0.21107  -0.20732  -0.20187  -0.18340  -0.18051
 Alpha  occ. eigenvalues --   -0.16470  -0.13861  -0.06395  -0.02353  -0.02114
 Alpha virt. eigenvalues --    0.16485   0.18344   0.19826   0.21636   0.23517
 Alpha virt. eigenvalues --    0.24104   0.24526   0.25313   0.26386   0.27616
 Alpha virt. eigenvalues --    0.28604   0.29520   0.29824   0.30551   0.31342

 Mulliken charges:
               1
     1  O   -0.380982
     2  C    0.126518
     3  C   -0.251284
     4  C   -0.057012
     5  C    0.152683
     6  C   -0.046360
     7  C    0.176098
     8  C    0.204888
     9  C   -0.102521
    10  C    0.111167
    11  C    0.217404
    12  H   -0.061371
    13  H   -0.052464
    14  H   -0.015804
    15  H   -0.050013
    16  H   -0.039871
    17  H   -0.064928
    18  H   -0.023848
    19  H    0.010469
    20  H   -0.069451
    21  H   -0.005985
    22  H   -0.072871
    23  O   -0.387728
    24  C    0.059653
    25  H   -0.074639
    26  H   -0.001904
    27  H   -0.061619
    28  H   -0.124053
    29  H   -0.057995
    30  H   -0.056179
 Sum of Mulliken charges =  -1.00000

 Dipole moment (field-independent basis, Debye):
    X=              5.4105    Y=              7.9649    Z=              0.5649  Tot=              9.6453
 Quadrupole moment (field-independent basis, Debye-Ang):
   XX=           -103.5431   YY=           -106.3774   ZZ=            -82.6638
   XY=            -12.7666   XZ=              0.6329   YZ=             -1.4390

  Exact polarizability:     144.880      -0.371     117.807      -4.413      -0.977      92.854
 Approx polarizability:     186.943       2.972     179.373      -6.570      -0.666     132.584

 Summary of Natural Population Analysis:

                                       Natural Population
                Natural  -----------------------------------------------
    Atom  No    Charge         Core      Valence    Rydberg      Total
 -----------------------------------------------------------------------
      O    1   -0.69800      1.99978     6.68969    0.00854     8.69800
      C    2    0.47521      1.99892     3.48006    0.04581     5.52479
      C    3   -0.36163      1.99882     4.34029    0.02252     6.36163
      C    4   -0.21059      1.99901     4.19475    0.01684     6.21059
      C    5   -0.38319      1.99909     4.36752    0.01658     6.38319
      C    6   -0.27447      1.99891     4.25372    0.02184     6.27447
      C    7    0.32267      1.99900     3.63841    0.03992     5.67733
      C    8   -0.57482      1.99917     4.56474    0.01090     6.57482
      C    9   -0.17635      1.99903     4.15952    0.01780     6.17635
      C   10   -0.57194      1.99909     4.56172    0.01113     6.57194
      C   11   -0.56223      1.99912     4.55118    0.01192     6.56223
      H   12    0.17497      0.00000     0.82093    0.00409     0.82503
      H   13    0.20014      0.00000     0.79448    0.00538     0.79986
      H   14    0.20123      0.00000     0.79567    0.00310     0.79877
      H   15    0.18296      0.00000     0.81371    0.00334     0.81704
      H   16    0.20389      0.00000     0.78632    0.00978     0.79611
      H   17    0.15364      0.00000     0.84289    0.00347     0.84636
      H   18    0.19215      0.00000     0.80461    0.00324     0.80785
      H   19    0.20165      0.00000     0.79557    0.00278     0.79835
      H   20    0.18066      0.00000     0.81620    0.00314     0.81934
      H   21    0.21043      0.00000     0.78646    0.00311     0.78957
      H   22    0.16371      0.00000     0.83319    0.00311     0.83629
      O   23   -0.66784      1.99980     6.65890    0.00914     8.66784
      C   24   -0.38161      1.99912     4.36734    0.01515     6.38161
      H   25    0.17220      0.00000     0.82356    0.00424     0.82780
      H   26    0.20623      0.00000     0.79000    0.00378     0.79377
      H   27    0.17152      0.00000     0.82404    0.00443     0.82848
      H   28    0.08087      0.00000     0.91241    0.00672     0.91913
      H   29    0.18288      0.00000     0.81293    0.00419     0.81712
      H   30    0.18566      0.00000     0.80788    0.00646     0.81434
 =======================================================================
   * Total *   -1.00000     25.98886    73.68867    0.32246   100.00000

 ******   19 imaginary frequencies (negative Signs) ******

                      1                      2                      3
                      A                      A                      A
 Frequencies --  -1448.6327             -1434.5142             -1308.7373
 Red. masses --      1.0157                 1.0347                 1.0632
 Frc consts  --      1.2558                 1.2545                 1.0729
 IR Inten    --      0.7062                 5.9670                 4.6835

                      4                      5                      6
                      A                      A                      A
 Frequencies --  -1142.0960             -1124.5246             -1057.1192
 Red. masses --      1.0125                 1.0514                 1.0357
 Frc consts  --      0.7781                 0.7833                 0.6819
 IR Inten    --      0.4459                 3.6210                 4.8059

                      7                      8                      9
                      A                      A                      A
 Frequencies --   -952.6195              -836.7883              -817.9274
 Red. masses --      1.0461                 1.0660                 1.0651
 Frc consts  --      0.5593                 0.4398                 0.4198
 IR Inten    --     16.4522                 4.3501                 2.9069

                     10                     11                     12
                      A                      A                      A
 Frequencies --   -764.3432              -646.2416              -560.1103
 Red. masses --      1.0763                 1.1620                 1.1383
 Frc consts  --      0.3705                 0.2859                 0.2104
 IR Inten    --      0.4877                 0.1581                 2.4795

                     13                     14                     15
                      A                      A                      A
 Frequencies --   -428.9622              -347.1190              -298.0941
 Red. masses --      1.4075                 1.7421                 1.8176
 Frc consts  --      0.1526                 0.1237                 0.0952
 IR Inten    --      1.2898                 6.9818                 0.8152

                     16                     17                     18
                      A                      A                      A
 Frequencies --   -276.8589              -240.0725              -148.6312
 Red. masses --      2.1288                 2.3846                 1.9667
 Frc consts  --      0.0961                 0.0810                 0.0256
 IR Inten    --      0.0698                 3.2758                 0.6323

                     19                     20                     21
                      A                      A                      A
 Frequencies --    -97.4348               164.5300               215.1239
 Red. masses --      3.0341                 4.1575                 4.0592
 Frc consts  --      0.0170                 0.0663                 0.1107
 IR Inten    --      1.3474                 2.2098                 1.7420

                     22                     23                     24
                      A                      A                      A
 Frequencies --    305.7400               348.0607               398.0758
 Red. masses --      3.3606                 2.7761                 2.7381
 Frc consts  --      0.1851                 0.1982                 0.2556
 IR Inten    --      1.4939                 1.6670                 2.8352

                     25                     26                     27
                      A                      A                      A
 Frequencies --    431.3518               496.0069               518.9657
 Red. masses --      2.5422                 3.7606                 3.3916
 Frc consts  --      0.2787                 0.5451                 0.5382
 IR Inten    --      5.8652                 9.2597                11.8875

                     28                     29                     30
                      A                      A                      A
 Frequencies --    557.5472               584.8010               611.5829
 Red. masses --      2.7904                 2.6370                 1.1925
 Frc consts  --      0.5111                 0.5313                 0.2628
 IR Inten    --      6.0208                 3.3918                13.0437

                     31                     32                     33
                      A                      A                      A
 Frequencies --    628.9269               655.6015               684.1644
 Red. masses --      2.4630                 1.8844                 2.3168
 Frc consts  --      0.5740                 0.4772                 0.6389
 IR Inten    --     10.8097                 9.6635                 8.6511

                     34                     35                     36
                      A                      A                      A
 Frequencies --    729.5530               760.7417               779.8829
 Red. masses --      2.4284                 2.6022                 2.3843
 Frc consts  --      0.7615                 0.8873                 0.8544
 IR Inten    --      0.8173                 3.7192                 3.7074

                     37                     38                     39
                      A                      A                      A
 Frequencies --    798.6797               837.6701               868.7086
 Red. masses --      1.8096                 2.3717                 1.8273
 Frc consts  --      0.6801                 0.9805                 0.8125
 IR Inten    --      1.8178                 8.0271                 4.9933

                     40                     41                     42
                      A                      A                      A
 Frequencies --    871.5610               893.3722               895.3822
 Red. masses --      1.6592                 1.7982                 2.3476
 Frc consts  --      0.7426                 0.8456                 1.1089
 IR Inten    --     15.7528                 7.4606                 0.7456

                     43                     44                     45
                      A                      A                      A
 Frequencies --    927.6969               961.4810               968.1140
 Red. masses --      3.1646                 1.7173                 1.6241
 Frc consts  --      1.6046                 0.9354                 0.8969
 IR Inten    --      6.8925                 5.9594                 3.3086

                     46                     47                     48
                      A                      A                      A
 Frequencies --    989.8181              1011.9680              1063.5916
 Red. masses --      2.4664                 2.0508                 1.3082
 Frc consts  --      1.4237                 1.2374                 0.8719
 IR Inten    --      1.1551                 5.4614                 9.3607

                     49                     50                     51
                      A                      A                      A
 Frequencies --   1084.3475              1111.5025              1124.9968
 Red. masses --      1.8351                 1.5964                 2.0418
 Frc consts  --      1.2713                 1.1620                 1.5225
 IR Inten    --      2.8355                 9.4332                 2.8640

                     52                     53                     54
                      A                      A                      A
 Frequencies --   1152.9504              1163.2061              1192.6851
 Red. masses --      2.1043                 1.4589                 1.5587
 Frc consts  --      1.6481                 1.1630                 1.3063
 IR Inten    --      7.9220                 5.5923                 5.9133

                     55                     56                     57
                      A                      A                      A
 Frequencies --   1211.0780              1224.5119              1237.2754
 Red. masses --      1.4552                 3.5763                 2.7501
 Frc consts  --      1.2575                 3.1595                 2.4805
 IR Inten    --      5.0722                 1.8258                 4.0026

                     58                     59                     60
                      A                      A                      A
 Frequencies --   1242.6214              1254.9257              1324.1988
 Red. masses --      2.0464                 3.0203                 2.4501
 Frc consts  --      1.8617                 2.8024                 2.5313
 IR Inten    --     12.7183                 9.3061                30.2185

                     61                     62                     63
                      A                      A                      A
 Frequencies --   1344.7101              1350.9175              1362.0918
 Red. masses --      1.5864                 1.7844                 1.4600
 Frc consts  --      1.6901                 1.9186                 1.5959
 IR Inten    --      5.0235                33.6172                 1.5777

                     64                     65                     66
                      A                      A                      A
 Frequencies --   1408.8941              1414.0433              1601.7966
 Red. masses --      1.0745                11.0617                11.4541
 Frc consts  --      1.2566                13.0316                17.3152
 IR Inten    --      9.1769                65.3545               263.6443

                     67                     68                     69
                      A                      A                      A
 Frequencies --   1646.2331              2993.5436              3048.8242
 Red. masses --     11.1669                 1.0779                 1.0700
 Frc consts  --     17.8305                 5.6910                 5.8601
 IR Inten    --    656.3478                49.3219                33.6965

                     70                     71                     72
                      A                      A                      A
 Frequencies --   3693.9096              3898.1593              4068.6033
 Red. masses --      1.0795                 1.0586                 1.0848
 Frc consts  --      8.6787                 9.4776                10.5798
 IR Inten    --     50.8029                16.0489               184.0486

                     73                     74                     75
                      A                      A                      A
 Frequencies --   4143.0205              4157.3655              4177.2123
 Red. masses --      1.0779                 1.0929                 1.0869
 Frc consts  --     10.9009                11.1289                11.1741
 IR Inten    --     48.4767                56.8465                43.3632

                     76                     77                     78
                      A                      A                      A
 Frequencies --   4305.0707              4335.2986              4406.0239
 Red. masses --      1.0859                 1.0558                 1.0872
 Frc consts  --     11.8580                11.6917                12.4354
 IR Inten    --     14.7292                25.1198                 2.5775

                     79                     80                     81
                      A                      A                      A
 Frequencies --   4417.6666              4423.7714              4439.8317
 Red. masses --      1.0954                 1.0898                 1.0865
 Frc consts  --     12.5957                12.5654                12.6184
 IR Inten    --     25.8564                 9.3941                41.5495

                     82                     83                     84
                      A                      A                      A
 Frequencies --   4613.9987              4944.0521              5237.7230
 Red. masses --      1.0887                 1.0914                 1.0871
 Frc consts  --     13.6554                15.7175                17.5711
 IR Inten    --      8.9421                 9.1040                 5.1885

 - Thermochemistry -
 -------------------
 Temperature   298.150 Kelvin.  Pressure   1.00000 Atm.
 Atom     1 has atomic number  8 and mass  15.99491

 Molecular mass:   181.12285 amu.
 Principal axes and moments of inertia in atomic units:
                           1         2         3
     Eigenvalues --  1606.106522874.406153778.58110
           X            0.99877  -0.04948  -0.00132
           Y            0.04948   0.99877  -0.00438
           Z            0.00153   0.00431   0.99999
 This molecule is an asymmetric top.
 Rotational symmetry number  1.
 Warning -- assumption of classical behavior for rotation
           may cause significant error
 Rotational temperatures (Kelvin)      0.05393     0.03013     0.02292
 Rotational constants (GHZ):           1.12367     0.62787     0.47762
   19 imaginary frequencies ignored.
 Zero-point vibrational energy     692134.0 (Joules/Mol)
                                  165.42398 (Kcal/Mol)
 Warning -- explicit consideration of  11 degrees of freedom as
           vibrations may cause significant error
 Vibrational temperatures:    236.72   309.52   439.89   500.78   572.74
          (Kelvin)            620.62   713.64   746.68   802.19   841.40
                              879.93   904.89   943.26   984.36  1049.66
                             1094.54  1122.08  1149.12  1205.22  1249.88
                             1253.98  1285.36  1288.26  1334.75  1383.36
                             1392.90  1424.13  1456.00  1530.27  1560.13
                             1599.20  1618.62  1658.84  1673.59  1716.01
                             1742.47  1761.80  1780.16  1787.85  1805.56
                             1905.23  1934.74  1943.67  1959.75  2027.08
                             2034.49  2304.63  2368.56  4307.04  4386.58
                             5314.71  5608.58  5853.81  5960.88  5981.52
                             6010.08  6194.04  6237.53  6339.29  6356.04
                             6364.82  6387.93  6638.52  7113.39  7535.92

 Zero-point correction=                           0.263620 (Hartree/Particle)
 Thermal correction to Energy=                    0.271466
 Thermal correction to Enthalpy=                  0.272411
 Thermal correction to Gibbs Free Energy=         0.230419
 Sum of electronic and zero-point Energies=           -578.356676
 Sum of electronic and thermal Energies=              -578.348829
 Sum of electronic and thermal Enthalpies=            -578.347885
 Sum of electronic and thermal Free Energies=         -578.389877

                     E (Thermal)             CV                S
                      KCal/Mol        Cal/Mol-Kelvin    Cal/Mol-Kelvin
 Total                  170.348             35.306             88.379
 Electronic               0.000              0.000              0.000
 Translational            0.889              2.981             41.489
 Rotational               0.889              2.981             31.234
 Vibrational            168.570             29.344             15.656
 Vibration     1          0.623              1.886              2.497
 Vibration     2          0.645              1.818              2.000
 Vibration     3          0.696              1.663              1.385
 Vibration     4          0.726              1.579              1.175
 Vibration     5          0.764              1.474              0.970
 Vibration     6          0.792              1.402              0.854
 Vibration     7          0.852              1.259              0.668
 Vibration     8          0.874              1.208              0.612
 Vibration     9          0.913              1.123              0.529
 Vibration    10          0.942              1.064              0.477
 Vibration    11          0.971              1.007              0.430

 Normal termination of Gaussian 16 at Mon Mar  6 10:51:07 2023.
