 Gaussian 16, Revision C.01,
 Gaussian 16:  ES64L-G16RevC.01  3-Jul-2019

 ----------------------------------------------------------------------
 #p pop=(regular,nbo,savenbos) freq=noraman def2svp empiricaldispersion
 =gd3bj output=wfx pbe1pbe
 ----------------------------------------------------------------------

 ----------------------------------------
 FIPRON_Complex_0_Ligand_0_ON_Cu_oriented
 ----------------------------------------
 Symbolic Z-matrix:
 Charge = -1 Multiplicity = 1

                         Standard orientation:
 ---------------------------------------------------------------------
 Center     Atomic      Atomic             Coordinates (Angstroms)
 Number     Number       Type             X           Y           Z
 ---------------------------------------------------------------------
      1          7           0        0.964587   -1.853603   -0.394000
      2          6           0        2.436572   -1.749130   -0.140116
      3          1           0        2.896339   -2.193684   -0.896603
      4          6           0        2.724574   -2.570159    1.104664
      5          1           0        2.323903   -3.449062    1.011799
      6          1           0        2.350510   -2.123806    1.880179
      7          1           0        3.684357   -2.662523    1.215889
      8          6           0        2.934960   -0.320886   -0.089355
      9          6           0        3.197341    0.345605    1.096372
     10          1           0        3.104489   -0.111691    1.911999
     11          6           0        3.591226    1.660232    1.102780
     12          1           0        3.774772    2.095532    1.916189
     13          6           0        3.717174    2.337459   -0.084618
     14          1           0        3.987936    3.238045   -0.082421
     15          6           0        3.450636    1.715624   -1.265561
     16          1           0        3.524916    2.187845   -2.074947
     17          6           0        3.072467    0.391576   -1.272635
     18          1           0        2.904352   -0.037164   -2.091944
     19          8           0       -1.463638   -3.173984   -0.475531
     20          6           0       -1.964382   -1.987425   -0.263390
     21          6           0       -3.385477   -1.919540   -0.038115
     22          1           0       -3.889889   -2.713411   -0.052862
     23          6           0       -4.006082   -0.750386    0.192051
     24          1           0       -4.928455   -0.745705    0.376255
     25          6           0       -3.293402    0.484304    0.162161
     26          6           0       -3.964269    1.716304    0.334502
     27          1           0       -4.887530    1.722066    0.509439
     28          6           0       -3.289881    2.894186    0.251318
     29          1           0       -3.744869    3.707020    0.377534
     30          6           0       -1.921702    2.893810   -0.023250
     31          1           0       -1.466883    3.711217   -0.117920
     32          6           0       -1.231862    1.711156   -0.153950
     33          1           0       -0.306409    1.732357   -0.311115
     34          6           0       -1.888441    0.467944   -0.056972
     35          6           0       -1.218814   -0.805712   -0.211465
     36          6           0        0.205054   -0.840149   -0.158274
     37          1           0        0.635303   -0.038829    0.073901
 ---------------------------------------------------------------------

 SCF Done:  E(RPBE1PBE) =  -861.773499177     A.U. after   18 cycles

 The electronic state is 1-A.
 Alpha  occ. eigenvalues --  -18.96454 -14.21292 -10.13096 -10.12581 -10.12279
 Alpha  occ. eigenvalues --  -10.12174 -10.11990 -10.11691 -10.11689 -10.10923
 Alpha  occ. eigenvalues --  -10.09947 -10.09408 -10.09327 -10.08831 -10.08816
 Alpha  occ. eigenvalues --  -10.08076 -10.08047 -10.07834 -10.07261 -10.06266
 Alpha  occ. eigenvalues --  -10.05605  -0.80495  -0.79653  -0.77228  -0.75166
 Alpha  occ. eigenvalues --   -0.69665  -0.69083  -0.68383  -0.66255  -0.65121
 Alpha  occ. eigenvalues --   -0.61785  -0.59192  -0.56264  -0.54634  -0.52542
 Alpha  occ. eigenvalues --   -0.51462  -0.49704  -0.48265  -0.46695  -0.43986
 Alpha  occ. eigenvalues --   -0.41833  -0.40541  -0.38975  -0.38413  -0.37177
 Alpha  occ. eigenvalues --   -0.36300  -0.35649  -0.35345  -0.33713  -0.31926
 Alpha  occ. eigenvalues --   -0.31291  -0.30539  -0.29587  -0.29382  -0.28996
 Alpha  occ. eigenvalues --   -0.27587  -0.27281  -0.26706  -0.25716  -0.25169
 Alpha  occ. eigenvalues --   -0.23769  -0.22364  -0.21196  -0.19636  -0.18664
 Alpha  occ. eigenvalues --   -0.17352  -0.16441  -0.15150  -0.14026  -0.10259
 Alpha  occ. eigenvalues --   -0.09576  -0.04385  -0.03282
 Alpha virt. eigenvalues --    0.09307   0.09856   0.10279   0.13584   0.15628
 Alpha virt. eigenvalues --    0.18510   0.20532   0.20874   0.21240   0.21493
 Alpha virt. eigenvalues --    0.22869   0.23648   0.23931   0.25006   0.25979

 Mulliken charges:
               1
     1  N   -0.224503
     2  C    0.138088
     3  H   -0.047962
     4  C    0.214726
     5  H   -0.013892
     6  H   -0.025553
     7  H   -0.049442
     8  C   -0.118027
     9  C    0.081060
    10  H   -0.121422
    11  C    0.099152
    12  H   -0.109090
    13  C    0.077324
    14  H   -0.106536
    15  C    0.097022
    16  H   -0.105201
    17  C    0.081907
    18  H   -0.106288
    19  O   -0.412274
    20  C    0.120893
    21  C    0.048681
    22  H   -0.142867
    23  C    0.085629
    24  H   -0.145413
    25  C   -0.009700
    26  C    0.061208
    27  H   -0.142235
    28  C    0.060751
    29  H   -0.128364
    30  C    0.088479
    31  H   -0.123115
    32  C    0.033996
    33  H   -0.132893
    34  C    0.067026
    35  C   -0.070579
    36  C    0.086283
    37  H   -0.106870
 Sum of Mulliken charges =  -1.00000

 Dipole moment (field-independent basis, Debye):
    X=              5.3320    Y=              6.4929    Z=              1.4598  Tot=              8.5275
 Quadrupole moment (field-independent basis, Debye-Ang):
   XX=           -145.5065   YY=           -154.1148   ZZ=           -124.6201
   XY=             -3.3278   XZ=             -1.8505   YZ=             -5.0544

  Exact polarizability:     254.425      -6.111     258.926      -5.257       4.283     126.381
 Approx polarizability:     346.645     -15.718     472.300     -16.048      21.099     215.833

 Summary of Natural Population Analysis:

                                       Natural Population
                Natural  -----------------------------------------------
    Atom  No    Charge         Core      Valence    Rydberg      Total
 -----------------------------------------------------------------------
      N    1   -0.49757      1.99937     5.47894    0.01926     7.49757
      C    2   -0.02030      1.99895     3.99958    0.02177     6.02030
      H    3    0.18478      0.00000     0.81062    0.00460     0.81522
      C    4   -0.55361      1.99916     4.54363    0.01081     6.55361
      H    5    0.20660      0.00000     0.78936    0.00404     0.79340
      H    6    0.18206      0.00000     0.81477    0.00317     0.81794
      H    7    0.17360      0.00000     0.82290    0.00350     0.82640
      C    8   -0.03794      1.99899     4.02105    0.01791     6.03794
      C    9   -0.18505      1.99896     4.17114    0.01494     6.18505
      H   10    0.17462      0.00000     0.82213    0.00325     0.82538
      C   11   -0.17342      1.99910     4.15965    0.01466     6.17342
      H   12    0.16758      0.00000     0.82924    0.00318     0.83242
      C   13   -0.19767      1.99910     4.18404    0.01453     6.19767
      H   14    0.16545      0.00000     0.83128    0.00327     0.83455
      C   15   -0.17762      1.99909     4.16396    0.01457     6.17762
      H   16    0.16841      0.00000     0.82840    0.00319     0.83159
      C   17   -0.16568      1.99898     4.15054    0.01616     6.16568
      H   18    0.17623      0.00000     0.82054    0.00323     0.82377
      O   19   -0.69597      1.99980     6.68824    0.00793     8.69597
      C   20    0.41156      1.99886     3.55022    0.03937     5.58844
      C   21   -0.20231      1.99899     4.18387    0.01945     6.20231
      H   22    0.16859      0.00000     0.82614    0.00527     0.83141
      C   23   -0.18499      1.99904     4.17027    0.01568     6.18499
      H   24    0.16000      0.00000     0.83608    0.00392     0.84000
      C   25   -0.09000      1.99896     4.07561    0.01543     6.09000
      C   26   -0.16839      1.99905     4.15352    0.01582     6.16839
      H   27    0.16194      0.00000     0.83456    0.00351     0.83806
      C   28   -0.24362      1.99910     4.22862    0.01589     6.24362
      H   29    0.16016      0.00000     0.83655    0.00329     0.83984
      C   30   -0.19012      1.99912     4.17615    0.01485     6.19012
      H   31    0.16014      0.00000     0.83664    0.00322     0.83986
      C   32   -0.19270      1.99903     4.17847    0.01520     6.19270
      H   33    0.17115      0.00000     0.82531    0.00354     0.82885
      C   34   -0.02015      1.99896     4.00557    0.01562     6.02015
      C   35   -0.23780      1.99886     4.21920    0.01973     6.23780
      C   36    0.12863      1.99900     3.84489    0.02748     5.87137
      H   37    0.11342      0.00000     0.87723    0.00935     0.88658
 =======================================================================
   * Total *   -1.00000     41.98049   103.58891    0.43061   146.00000

 ******   29 imaginary frequencies (negative Signs) ******

                      1                      2                      3
                      A                      A                      A
 Frequencies --  -1376.5551             -1369.6226             -1340.3769
 Red. masses --      1.0826                 1.0804                 1.0646
 Frc consts  --      1.2087                 1.1941                 1.1269
 IR Inten    --     52.8432                66.8166                31.7430

                      4                      5                      6
                      A                      A                      A
 Frequencies --  -1300.3217             -1295.5434             -1285.0119
 Red. masses --      1.0091                 1.0411                 1.0414
 Frc consts  --      1.0053                 1.0295                 1.0131
 IR Inten    --      0.1265                 6.3026                14.0483

                      7                      8                      9
                      A                      A                      A
 Frequencies --  -1265.7395             -1212.8856             -1189.7276
 Red. masses --      1.0424                 1.0298                 1.0267
 Frc consts  --      0.9839                 0.8925                 0.8562
 IR Inten    --      0.3791                 0.5122                 0.3718

                     10                     11                     12
                      A                      A                      A
 Frequencies --  -1139.9442             -1113.9821             -1109.3998
 Red. masses --      1.0152                 1.0260                 1.0366
 Frc consts  --      0.7773                 0.7501                 0.7517
 IR Inten    --      0.1573                 0.0498                 0.3010

                     13                     14                     15
                      A                      A                      A
 Frequencies --  -1057.8944              -917.6264              -902.0524
 Red. masses --      1.0351                 1.0522                 1.0586
 Frc consts  --      0.6825                 0.5220                 0.5075
 IR Inten    --      0.1049                22.3549                 2.8434

                     16                     17                     18
                      A                      A                      A
 Frequencies --   -832.5620              -819.3549              -791.0273
 Red. masses --      1.1027                 1.0875                 1.0799
 Frc consts  --      0.4503                 0.4301                 0.3981
 IR Inten    --      3.6150                 4.2593                 0.2983

                     19                     20                     21
                      A                      A                      A
 Frequencies --   -767.6290              -763.7653              -702.9247
 Red. masses --      1.1608                 1.1847                 1.1273
 Frc consts  --      0.4030                 0.4072                 0.3282
 IR Inten    --      2.4642                 0.6871                 6.9504

                     22                     23                     24
                      A                      A                      A
 Frequencies --   -687.9425              -636.1197              -613.4832
 Red. masses --      1.1532                 1.1101                 1.0863
 Frc consts  --      0.3216                 0.2647                 0.2409
 IR Inten    --      5.6621                 9.7096                 3.4851

                     25                     26                     27
                      A                      A                      A
 Frequencies --   -594.1150              -522.0666              -419.3563
 Red. masses --      1.1901                 1.0421                 1.3412
 Frc consts  --      0.2475                 0.1673                 0.1390
 IR Inten    --      6.6453                14.0292                 4.1839

                     28                     29                     30
                      A                      A                      A
 Frequencies --   -256.6511               -77.2742                97.7985
 Red. masses --      2.5352                 4.7035                 7.1130
 Frc consts  --      0.0984                 0.0165                 0.0401
 IR Inten    --      1.7860                 1.8690                 0.8458

                     31                     32                     33
                      A                      A                      A
 Frequencies --    145.6288               184.3949               195.0277
 Red. masses --     10.0804                 8.6069                 7.7424
 Frc consts  --      0.1260                 0.1724                 0.1735
 IR Inten    --      2.5490                 0.4994                 2.3015

                     34                     35                     36
                      A                      A                      A
 Frequencies --    219.5384               256.5076               270.9096
 Red. masses --      8.4649                 7.8256                 9.3140
 Frc consts  --      0.2404                 0.3034                 0.4027
 IR Inten    --      0.9788                 2.3522                 0.4318

                     37                     38                     39
                      A                      A                      A
 Frequencies --    320.9946               339.8595               432.6692
 Red. masses --      6.9067                 7.4485                 5.1812
 Frc consts  --      0.4193                 0.5069                 0.5715
 IR Inten    --      3.4060                 2.4555                 5.0256

                     40                     41                     42
                      A                      A                      A
 Frequencies --    454.1061               463.2240               468.7039
 Red. masses --      6.8992                 6.9495                 8.6244
 Frc consts  --      0.8382                 0.8786                 1.1163
 IR Inten    --      9.2152                10.9365                 5.3142

                     43                     44                     45
                      A                      A                      A
 Frequencies --    513.5198               531.7915               547.6139
 Red. masses --      3.2738                10.7011                 6.8874
 Frc consts  --      0.5086                 1.7830                 1.2169
 IR Inten    --      1.0953                 0.0860                 0.8919

                     46                     47                     48
                      A                      A                      A
 Frequencies --    565.6825               584.1178               603.6828
 Red. masses --      2.8091                 1.5426                 5.5888
 Frc consts  --      0.5296                 0.3101                 1.2000
 IR Inten    --     11.6990                10.8570                 8.3095

                     49                     50                     51
                      A                      A                      A
 Frequencies --    636.5017               640.6874               654.3301
 Red. masses --      7.1892                 7.4608                 6.1594
 Frc consts  --      1.7160                 1.8044                 1.5538
 IR Inten    --      1.0643                 1.1075                15.7457

                     52                     53                     54
                      A                      A                      A
 Frequencies --    666.9549               731.9935               749.8821
 Red. masses --      7.6137                 3.1137                 4.7924
 Frc consts  --      1.9954                 0.9830                 1.5878
 IR Inten    --      1.5825                 3.9855                 8.4784

                     55                     56                     57
                      A                      A                      A
 Frequencies --    758.6761               775.7459               782.1059
 Red. masses --      3.2808                 4.3590                 4.4493
 Frc consts  --      1.1126                 1.5455                 1.6035
 IR Inten    --      1.3673                 2.0376                 1.5584

                     58                     59                     60
                      A                      A                      A
 Frequencies --    799.9134               810.6322               829.8891
 Red. masses --      9.1076                 3.4697                 3.1851
 Frc consts  --      3.4335                 1.3433                 1.2924
 IR Inten    --      4.6050                 9.5340                14.5820

                     61                     62                     63
                      A                      A                      A
 Frequencies --    869.4578               872.6043               897.6211
 Red. masses --      2.9800                 7.6517                 3.2308
 Frc consts  --      1.3273                 3.4327                 1.5337
 IR Inten    --      4.1695                 7.1432                 8.7624

                     64                     65                     66
                      A                      A                      A
 Frequencies --    922.0571               957.0638               988.1770
 Red. masses --      3.1642                 3.7007                 4.4902
 Frc consts  --      1.5850                 1.9971                 2.5833
 IR Inten    --     20.5295                12.0160                12.1988

                     67                     68                     69
                      A                      A                      A
 Frequencies --   1054.4417              1062.4855              1093.8565
 Red. masses --      3.6014                 4.8583                 1.6578
 Frc consts  --      2.3592                 3.2313                 1.1687
 IR Inten    --      6.2588                29.0411                 7.4383

                     70                     71                     72
                      A                      A                      A
 Frequencies --   1095.8161              1127.2695              1228.1140
 Red. masses --      1.5043                 3.1518                 7.6185
 Frc consts  --      1.0643                 2.3597                 6.7702
 IR Inten    --     13.6722                 9.1951                45.6091

                     73                     74                     75
                      A                      A                      A
 Frequencies --   1254.2521              1278.6542              1354.7748
 Red. masses --      7.2377                 8.5423                 9.7318
 Frc consts  --      6.7084                 8.2287                10.5239
 IR Inten    --      5.0682                 8.2564                54.0109

                     76                     77                     78
                      A                      A                      A
 Frequencies --   1419.0023              1428.5081              1451.7774
 Red. masses --      9.7660                 7.9858                 9.8234
 Frc consts  --     11.5860                 9.6014                12.1986
 IR Inten    --     34.2699                 0.8093                 4.4177

                     79                     80                     81
                      A                      A                      A
 Frequencies --   1455.3912              1462.8607              1494.5322
 Red. masses --      9.2576                10.0792                 8.5621
 Frc consts  --     11.5533                12.7082                11.2679
 IR Inten    --     27.2515               125.2254                 3.8760

                     82                     83                     84
                      A                      A                      A
 Frequencies --   1497.6993              1571.7039              1641.6485
 Red. masses --      9.9568                 9.9544                10.4994
 Frc consts  --     13.1589                14.4880                16.6715
 IR Inten    --    216.7135                46.5937               262.4701

                     85                     86                     87
                      A                      A                      A
 Frequencies --   1678.4930              1688.5780              1696.0779
 Red. masses --     10.7378                10.7828                10.0945
 Frc consts  --     17.8240                18.1144                17.1091
 IR Inten    --    216.1269               220.3455                31.2987

                     88                     89                     90
                      A                      A                      A
 Frequencies --   1699.4172              1724.4422              4228.0290
 Red. masses --     10.5617                10.0868                 1.0873
 Frc consts  --     17.9715                17.6726                11.4521
 IR Inten    --     10.8845                 3.9695                29.2821

                     91                     92                     93
                      A                      A                      A
 Frequencies --   4347.2719              4540.2257              4555.1031
 Red. masses --      1.0323                 1.1061                 1.1070
 Frc consts  --     11.4945                13.4339                13.5325
 IR Inten    --     23.3788                19.3612                 2.7588

                     94                     95                     96
                      A                      A                      A
 Frequencies --   4876.3846              4878.7332              4881.3022
 Red. masses --      1.0871                 1.0862                 1.0861
 Frc consts  --     15.2306                15.2330                15.2467
 IR Inten    --      5.8986                 0.2664                 0.5185

                     97                     98                     99
                      A                      A                      A
 Frequencies --   4882.9817              4889.0815              4892.1318
 Red. masses --      1.0864                 1.0883                 1.0884
 Frc consts  --     15.2622                15.3270                15.3471
 IR Inten    --      1.9726                 2.5354                 6.4153

                    100                    101                    102
                      A                      A                      A
 Frequencies --   4895.6084              4895.6980              4901.8380
 Red. masses --      1.0897                 1.0912                 1.0914
 Frc consts  --     15.3870                15.4086                15.4514
 IR Inten    --      4.3479                 8.3629                14.2550

                    103                    104                    105
                      A                      A                      A
 Frequencies --   4903.6342              4905.7827              4912.1442
 Red. masses --      1.0904                 1.0927                 1.0900
 Frc consts  --     15.4475                15.4940                15.4956
 IR Inten    --      2.5058                 2.0504                 2.2418

 - Thermochemistry -
 -------------------
 Temperature   298.150 Kelvin.  Pressure   1.00000 Atm.
 Atom     1 has atomic number  7 and mass  14.00307

 Molecular mass:   274.12319 amu.
 Principal axes and moments of inertia in atomic units:
                           1         2         3
     Eigenvalues --  3793.005468037.66174**********
           X            0.99992  -0.01247   0.00155
           Y            0.01249   0.99987  -0.01016
           Z           -0.00143   0.01018   0.99995
 This molecule is an asymmetric top.
 Rotational symmetry number  1.
 Warning -- assumption of classical behavior for rotation
           may cause significant error
 Rotational temperatures (Kelvin)      0.02284     0.01078     0.00788
 Rotational constants (GHZ):           0.47581     0.22454     0.16414
   29 imaginary frequencies ignored.
 Zero-point vibrational energy     779880.3 (Joules/Mol)
                                  186.39587 (Kcal/Mol)
 Warning -- explicit consideration of  19 degrees of freedom as
           vibrations may cause significant error
 Vibrational temperatures:    140.71   209.53   265.30   280.60   315.87
          (Kelvin)            369.06   389.78   461.84   488.98   622.51
                              653.36   666.48   674.36   738.84   765.13
                              787.89   813.89   840.42   868.56   915.78
                              921.81   941.44   959.60  1053.18  1078.91
                             1091.57  1116.13  1125.28  1150.90  1166.32
                             1194.03  1250.96  1255.48  1291.48  1326.63
                             1377.00  1421.77  1517.11  1528.68  1573.82
                             1576.63  1621.89  1766.98  1804.59  1839.70
                             1949.22  2041.63  2055.30  2088.78  2093.98
                             2104.73  2150.30  2154.86  2261.33  2361.97
                             2414.98  2429.49  2440.28  2445.08  2481.09
                             6083.19  6254.75  6532.37  6553.78  7016.03
                             7019.41  7023.11  7025.52  7034.30  7038.69
                             7043.69  7043.82  7052.65  7055.24  7058.33
                             7067.48

 Zero-point correction=                           0.297041 (Hartree/Particle)
 Thermal correction to Energy=                    0.308569
 Thermal correction to Enthalpy=                  0.309513
 Thermal correction to Gibbs Free Energy=         0.258987
 Sum of electronic and zero-point Energies=           -861.476458
 Sum of electronic and thermal Energies=              -861.464930
 Sum of electronic and thermal Enthalpies=            -861.463986
 Sum of electronic and thermal Free Energies=         -861.514512

                     E (Thermal)             CV                S
                      KCal/Mol        Cal/Mol-Kelvin    Cal/Mol-Kelvin
 Total                  193.630             49.262            106.342
 Electronic               0.000              0.000              0.000
 Translational            0.889              2.981             42.724
 Rotational               0.889              2.981             34.171
 Vibrational            191.853             43.301             29.447
 Vibration     1          0.603              1.951              3.498
 Vibration     2          0.617              1.907              2.729
 Vibration     3          0.631              1.861              2.283
 Vibration     4          0.636              1.847              2.180
 Vibration     5          0.647              1.811              1.963
 Vibration     6          0.666              1.752              1.685
 Vibration     7          0.675              1.727              1.590
 Vibration     8          0.706              1.633              1.305
 Vibration     9          0.720              1.596              1.213
 Vibration    10          0.794              1.399              0.850
 Vibration    11          0.813              1.352              0.783
 Vibration    12          0.821              1.332              0.757
 Vibration    13          0.826              1.319              0.741
 Vibration    14          0.869              1.220              0.625
 Vibration    15          0.887              1.180              0.583
 Vibration    16          0.903              1.145              0.549
 Vibration    17          0.922              1.106              0.513
 Vibration    18          0.941              1.066              0.478
 Vibration    19          0.962              1.024              0.443

 Normal termination of Gaussian 16 at Mon Mar  6 11:29:53 2023.
