 Gaussian 16, Revision C.01,
 Gaussian 16:  ES64L-G16RevC.01  3-Jul-2019

 ----------------------------------------------------------------------
 #p pop=(regular,nbo,savenbos) freq=noraman def2svp empiricaldispersion
 =gd3bj output=wfx pbe1pbe
 ----------------------------------------------------------------------

 ----------------------------------------
 FIPSUU_Complex_0_Ligand_0_ON_Cu_oriented
 ----------------------------------------
 Symbolic Z-matrix:
 Charge = -1 Multiplicity = 1

                         Standard orientation:
 ---------------------------------------------------------------------
 Center     Atomic      Atomic             Coordinates (Angstroms)
 Number     Number       Type             X           Y           Z
 ---------------------------------------------------------------------
      1          7           0       -0.592616    1.667293    0.890165
      2          6           0        0.482404    2.347842    0.144821
      3          1           0        0.760917    3.137310    0.691486
      4          6           0        1.670597    1.433149    0.063693
      5          6           0        3.988043    0.945401    0.511434
      6          1           0        4.823054    1.199127    0.887433
      7          6           0        2.886977    1.760784    0.639537
      8          1           0        2.962069    2.567849    1.134941
      9          6           0        0.096121    2.874639   -1.220640
     10         35           0        5.355908   -1.377341   -0.289792
     11          6           0        1.593600    0.239721   -0.620488
     12          1           0        0.772518   -0.015874   -1.022736
     13          6           0        2.677974   -0.581704   -0.728842
     14          1           0        2.608448   -1.403297   -1.200758
     15          6           0        3.864356   -0.219177   -0.158692
     16          8           0       -1.812164    0.264342    2.902375
     17          6           0       -2.625635   -0.114441    1.972589
     18          6           0       -2.616112    0.362921    0.662219
     19          6           0       -1.565252    1.179365    0.200541
     20          1           0       -1.574573    1.394890   -0.723861
     21          6           0       -3.610382   -0.072137   -0.277760
     22          6           0       -4.487646   -1.101045    0.106166
     23          6           0       -4.443356   -1.586889    1.429538
     24          1           0       -5.049907   -2.269742    1.692940
     25          6           0       -3.563763   -1.108166    2.331032
     26          1           0       -3.575387   -1.443428    3.219760
     27          6           0       -5.428930   -1.587034   -0.809815
     28          1           0       -6.012187   -2.289278   -0.547677
     29          6           0       -5.524413   -1.074826   -2.065148
     30          1           0       -6.161383   -1.425862   -2.676932
     31          6           0       -4.698729   -0.051599   -2.444313
     32          1           0       -4.773800    0.317285   -3.317051
     33          6           0       -3.767722    0.442150   -1.575517
     34          1           0       -3.208232    1.156096   -1.857172
     35          1           0        0.821138    3.437029   -1.569323
     36          1           0       -0.051217    2.121000   -1.830854
     37          1           0       -0.721420    3.404306   -1.149765
 ---------------------------------------------------------------------

 SCF Done:  E(RPBE1PBE) =  -3434.78365259     A.U. after   18 cycles

 The electronic state is 1-A.
 Alpha  occ. eigenvalues -- -483.10897 -62.54280 -56.33256 -56.32927 -56.32923
 Alpha  occ. eigenvalues --  -18.96978 -14.21381 -10.19060 -10.13998 -10.13808
 Alpha  occ. eigenvalues --  -10.13609 -10.13162 -10.13132 -10.12672 -10.11108
 Alpha  occ. eigenvalues --  -10.10315 -10.09967 -10.09539 -10.09311 -10.09282
 Alpha  occ. eigenvalues --  -10.08830 -10.08668 -10.08490 -10.08338 -10.06681
 Alpha  occ. eigenvalues --  -10.05925  -8.68898  -6.50329  -6.49115  -6.49108
 Alpha  occ. eigenvalues --   -2.58897  -2.58539  -2.58534  -2.57559  -2.57558
 Alpha  occ. eigenvalues --   -0.82170  -0.81537  -0.79236  -0.76451  -0.74115
 Alpha  occ. eigenvalues --   -0.70353  -0.69854  -0.69111  -0.66375  -0.64789
 Alpha  occ. eigenvalues --   -0.62650  -0.60230  -0.57017  -0.56196  -0.53016
 Alpha  occ. eigenvalues --   -0.52237  -0.50664  -0.48910  -0.45540  -0.43695
 Alpha  occ. eigenvalues --   -0.42838  -0.40994  -0.40471  -0.39638  -0.37765
 Alpha  occ. eigenvalues --   -0.37423  -0.36300  -0.36091  -0.34141  -0.33406
 Alpha  occ. eigenvalues --   -0.32318  -0.31430  -0.31028  -0.30674  -0.30314
 Alpha  occ. eigenvalues --   -0.29441  -0.28410  -0.27619  -0.26891  -0.25588
 Alpha  occ. eigenvalues --   -0.24439  -0.23714  -0.23436  -0.21885  -0.21759
 Alpha  occ. eigenvalues --   -0.20342  -0.19488  -0.18555  -0.16610  -0.15983
 Alpha  occ. eigenvalues --   -0.14550  -0.10901  -0.10129  -0.04878  -0.03988
 Alpha virt. eigenvalues --    0.08415   0.08536   0.09800   0.10832   0.13075
 Alpha virt. eigenvalues --    0.15342   0.18531   0.19933   0.20535   0.20988
 Alpha virt. eigenvalues --    0.21509   0.22412   0.23294   0.24222   0.24884

 Mulliken charges:
               1
     1  N   -0.197037
     2  C    0.098302
     3  H   -0.065047
     4  C    0.004370
     5  C    0.090535
     6  H   -0.105110
     7  C    0.066133
     8  H   -0.101352
     9  C    0.182179
    10  Br  -0.092202
    11  C    0.094679
    12  H   -0.078946
    13  C    0.101483
    14  H   -0.100476
    15  C   -0.028886
    16  O   -0.390473
    17  C    0.119212
    18  C   -0.060360
    19  C    0.072064
    20  H   -0.170322
    21  C    0.076295
    22  C   -0.000697
    23  C    0.073230
    24  H   -0.135561
    25  C    0.040121
    26  H   -0.135458
    27  C    0.049356
    28  H   -0.132640
    29  C    0.056808
    30  H   -0.120509
    31  C    0.088285
    32  H   -0.117731
    33  C    0.017056
    34  H   -0.129070
    35  H   -0.038186
    36  H   -0.018025
    37  H   -0.012021
 Sum of Mulliken charges =  -1.00000

 Dipole moment (field-independent basis, Debye):
    X=              7.3685    Y=              0.0723    Z=             -6.1461  Tot=              9.5955
 Quadrupole moment (field-independent basis, Debye-Ang):
   XX=           -195.9975   YY=           -142.6029   ZZ=           -164.2343
   XY=              5.1175   XZ=              8.5168   YZ=             -4.5028

  Exact polarizability:     318.988      36.956     188.374      36.606      -0.500     209.822
 Approx polarizability:     419.924      66.669     308.580      87.765      13.647     382.693

 Summary of Natural Population Analysis:

                                       Natural Population
                Natural  -----------------------------------------------
    Atom  No    Charge         Core      Valence    Rydberg      Total
 -----------------------------------------------------------------------
      N    1   -0.50274      1.99936     5.48401    0.01937     7.50274
      C    2   -0.02501      1.99892     4.00199    0.02410     6.02501
      H    3    0.18680      0.00000     0.80870    0.00450     0.81320
      C    4    0.00034      1.99896     3.97921    0.02150     5.99966
      C    5   -0.20425      1.99886     4.18870    0.01669     6.20425
      H    6    0.18952      0.00000     0.80710    0.00338     0.81048
      C    7   -0.16611      1.99897     4.15165    0.01549     6.16611
      H    8    0.18069      0.00000     0.81610    0.00321     0.81931
      C    9   -0.58820      1.99919     4.57930    0.00971     6.58820
     Br   10    0.00957     27.99918     6.97250    0.01875    34.99043
      C   11   -0.15065      1.99896     4.13629    0.01541     6.15065
      H   12    0.19150      0.00000     0.80518    0.00332     0.80850
      C   13   -0.19432      1.99888     4.17862    0.01682     6.19432
      H   14    0.19088      0.00000     0.80577    0.00335     0.80912
      C   15   -0.10970      1.99866     4.08856    0.02248     6.10970
      O   16   -0.68255      1.99979     6.67442    0.00834     8.68255
      C   17    0.41207      1.99884     3.54909    0.03999     5.58793
      C   18   -0.23810      1.99885     4.21903    0.02022     6.23810
      C   19    0.11232      1.99903     3.86105    0.02760     5.88768
      H   20    0.11102      0.00000     0.88086    0.00812     0.88898
      C   21   -0.01792      1.99894     4.00304    0.01595     6.01792
      C   22   -0.09149      1.99893     4.07705    0.01551     6.09149
      C   23   -0.18447      1.99905     4.16950    0.01593     6.18447
      H   24    0.16426      0.00000     0.83179    0.00395     0.83574
      C   25   -0.20267      1.99899     4.18422    0.01945     6.20267
      H   26    0.17479      0.00000     0.81998    0.00523     0.82521
      C   27   -0.16657      1.99905     4.15146    0.01607     6.16657
      H   28    0.16633      0.00000     0.83012    0.00355     0.83367
      C   29   -0.24684      1.99909     4.23161    0.01614     6.24684
      H   30    0.16578      0.00000     0.83089    0.00333     0.83422
      C   31   -0.19464      1.99910     4.18049    0.01506     6.19464
      H   32    0.16573      0.00000     0.83099    0.00328     0.83427
      C   33   -0.20371      1.99904     4.18919    0.01549     6.20371
      H   34    0.16986      0.00000     0.82661    0.00353     0.83014
      H   35    0.19304      0.00000     0.80399    0.00296     0.80696
      H   36    0.18776      0.00000     0.80934    0.00290     0.81224
      H   37    0.19769      0.00000     0.79907    0.00324     0.80231
 =======================================================================
   * Total *   -1.00000     69.97863   109.55745    0.46392   180.00000

 ******   27 imaginary frequencies (negative Signs) ******

                      1                      2                      3
                      A                      A                      A
 Frequencies --  -1274.3013             -1240.8536             -1229.3181
 Red. masses --      1.0755                 1.0599                 1.0670
 Frc consts  --      1.0290                 0.9615                 0.9500
 IR Inten    --     51.6339                32.6187                45.5229

                      4                      5                      6
                      A                      A                      A
 Frequencies --  -1211.6740             -1192.1784             -1185.6437
 Red. masses --      1.0085                 1.0406                 1.0373
 Frc consts  --      0.8723                 0.8714                 0.8591
 IR Inten    --      0.0892                13.7681                 0.9327

                      7                      8                      9
                      A                      A                      A
 Frequencies --  -1177.0871             -1078.4575             -1035.0136
 Red. masses --      1.0443                 1.0206                 1.0150
 Frc consts  --      0.8525                 0.6994                 0.6406
 IR Inten    --      8.8325                 0.6085                 0.4169

                     10                     11                     12
                      A                      A                      A
 Frequencies --  -1010.5751             -1006.0628              -984.5917
 Red. masses --      1.0309                 1.0189                 1.0309
 Frc consts  --      0.6203                 0.6076                 0.5888
 IR Inten    --      0.2064                 0.0269                 0.3561

                     13                     14                     15
                      A                      A                      A
 Frequencies --   -830.2146              -815.6446              -690.3317
 Red. masses --      1.0570                 1.0628                 1.1345
 Frc consts  --      0.4293                 0.4166                 0.3185
 IR Inten    --     17.8823                 3.8970                 4.6997

                     16                     17                     18
                      A                      A                      A
 Frequencies --   -644.6501              -612.7254              -607.0719
 Red. masses --      1.1171                 1.2332                 1.2162
 Frc consts  --      0.2735                 0.2728                 0.2641
 IR Inten    --      2.0570                 0.9776                 3.0569

                     19                     20                     21
                      A                      A                      A
 Frequencies --   -583.4266              -555.0607              -537.7902
 Red. masses --      1.2786                 1.0472                 1.2125
 Frc consts  --      0.2564                 0.1901                 0.2066
 IR Inten    --      0.6835                12.5877                11.0302

                     22                     23                     24
                      A                      A                      A
 Frequencies --   -451.1352              -393.4947              -281.5433
 Red. masses --      1.2823                 1.1066                 1.0382
 Frc consts  --      0.1538                 0.1010                 0.0485
 IR Inten    --      7.9393                 7.6141                 8.5867

                     25                     26                     27
                      A                      A                      A
 Frequencies --   -138.5227              -116.5328               -36.5305
 Red. masses --      2.5292                 3.5567                 8.0748
 Frc consts  --      0.0286                 0.0285                 0.0063
 IR Inten    --      2.3491                 2.9270                 1.7137

                     28                     29                     30
                      A                      A                      A
 Frequencies --     79.1632               105.8696               116.8226
 Red. masses --      7.6348                 8.9496                10.5054
 Frc consts  --      0.0282                 0.0591                 0.0845
 IR Inten    --      1.3966                 1.6358                 1.5605

                     31                     32                     33
                      A                      A                      A
 Frequencies --    153.8807               166.9672               219.9735
 Red. masses --      7.9212                 9.2925                 5.8645
 Frc consts  --      0.1105                 0.1526                 0.1672
 IR Inten    --      0.2240                 0.1443                 1.6448

                     34                     35                     36
                      A                      A                      A
 Frequencies --    238.0432               261.0090               273.0712
 Red. masses --      7.3115                 7.1753                 8.4792
 Frc consts  --      0.2441                 0.2880                 0.3725
 IR Inten    --      0.6434                 1.6476                 0.7419

                     37                     38                     39
                      A                      A                      A
 Frequencies --    321.3206               328.0630               429.3779
 Red. masses --      6.1782                 9.7610                 4.8576
 Frc consts  --      0.3758                 0.6190                 0.5277
 IR Inten    --      1.2146                 1.2107                 8.9414

                     40                     41                     42
                      A                      A                      A
 Frequencies --    457.2137               471.7894               475.5075
 Red. masses --      4.8105                 7.9383                 6.3997
 Frc consts  --      0.5925                 1.0411                 0.8526
 IR Inten    --     11.0384                 5.2443                10.3557

                     43                     44                     45
                      A                      A                      A
 Frequencies --    480.6760               520.4557               553.4766
 Red. masses --      6.1634                11.3068                 6.6841
 Frc consts  --      0.8390                 1.8045                 1.2064
 IR Inten    --      8.7714                 0.0982                 6.5673

                     46                     47                     48
                      A                      A                      A
 Frequencies --    558.5997               568.7115               624.4626
 Red. masses --      6.1831                 4.5850                10.0939
 Frc consts  --      1.1367                 0.8737                 2.3191
 IR Inten    --      0.8450                 0.1157                 0.9318

                     49                     50                     51
                      A                      A                      A
 Frequencies --    634.1114               642.0062               657.1809
 Red. masses --      4.7945                 7.3806                10.5974
 Frc consts  --      1.1359                 1.7923                 2.6966
 IR Inten    --      7.4250                 1.9029                 4.5086

                     52                     53                     54
                      A                      A                      A
 Frequencies --    687.5920               710.0213               730.5117
 Red. masses --      3.9760                 1.2893                 2.2050
 Frc consts  --      1.1075                 0.3830                 0.6933
 IR Inten    --     10.6891                15.3145                 2.5887

                     55                     56                     57
                      A                      A                      A
 Frequencies --    780.5471               791.2271               803.2969
 Red. masses --      4.7132                10.2966                 6.8588
 Frc consts  --      1.6919                 3.7979                 2.6077
 IR Inten    --      2.0028                 5.4735                 0.4228

                     58                     59                     60
                      A                      A                      A
 Frequencies --    809.2853               829.8914               837.3105
 Red. masses --      5.9538                 3.4584                 3.5773
 Frc consts  --      2.2975                 1.4034                 1.4777
 IR Inten    --      1.7422                 4.4042                 7.0197

                     61                     62                     63
                      A                      A                      A
 Frequencies --    870.1171               895.9730               922.3159
 Red. masses --     10.9363                 1.9588                 1.8792
 Frc consts  --      4.8784                 0.9265                 0.9418
 IR Inten    --      5.4082                14.1423                26.9355

                     64                     65                     66
                      A                      A                      A
 Frequencies --    929.0556               977.2203               985.3761
 Red. masses --      3.2546                 2.0186                 5.6662
 Frc consts  --      1.6551                 1.1358                 3.2415
 IR Inten    --     27.4649                32.7795                 6.4513

                     67                     68                     69
                      A                      A                      A
 Frequencies --   1004.4679              1075.2105              1100.9053
 Red. masses --      4.3575                 5.0181                 4.5271
 Frc consts  --      2.5903                 3.4180                 3.2327
 IR Inten    --     59.6508                28.0279                39.7233

                     70                     71                     72
                      A                      A                      A
 Frequencies --   1135.3218              1147.5018              1151.7570
 Red. masses --      4.4598                 1.2175                 1.4281
 Frc consts  --      3.3869                 0.9446                 1.1162
 IR Inten    --     12.4447                 6.1985                 7.0473

                     73                     74                     75
                      A                      A                      A
 Frequencies --   1267.0102              1291.1569              1330.5360
 Red. masses --      7.6005                 7.1896                 8.2846
 Frc consts  --      7.1887                 7.0618                 8.6412
 IR Inten    --     19.0103                10.4922                10.6828

                     76                     77                     78
                      A                      A                      A
 Frequencies --   1415.5986              1442.0583              1466.4884
 Red. masses --      8.9115                 8.3254                10.0110
 Frc consts  --     10.5216                10.2005                12.6848
 IR Inten    --     13.4608                 5.5772                52.7197

                     79                     80                     81
                      A                      A                      A
 Frequencies --   1488.0855              1489.8820              1512.7287
 Red. masses --      9.6583                10.0601                10.2046
 Frc consts  --     12.6010                13.1570                13.7584
 IR Inten    --     78.7506               105.9128                 9.8132

                     82                     83                     84
                      A                      A                      A
 Frequencies --   1528.9629              1564.0743              1630.0928
 Red. masses --      8.5317                10.0496                10.0662
 Frc consts  --     11.7511                14.4849                15.7594
 IR Inten    --     28.8547               265.5260                28.2194

                     85                     86                     87
                      A                      A                      A
 Frequencies --   1674.9252              1702.4914              1708.8493
 Red. masses --     10.3614                10.9473                11.1265
 Frc consts  --     17.1262                18.6950                19.1434
 IR Inten    --    372.4568               420.6706                84.0211

                     88                     89                     90
                      A                      A                      A
 Frequencies --   1710.8615              1734.8848              1768.0188
 Red. masses --     11.1874                10.7142                10.1517
 Frc consts  --     19.2933                18.9999                18.6966
 IR Inten    --     11.0577                40.4586                 2.3982

                     91                     92                     93
                      A                      A                      A
 Frequencies --   4112.7528              4232.4405              4405.9085
 Red. masses --      1.0875                 1.0334                 1.1057
 Frc consts  --     10.8379                10.9064                12.6464
 IR Inten    --     41.3905                12.2953                11.2836

                     94                     95                     96
                      A                      A                      A
 Frequencies --   4451.2218              4741.4934              4743.7973
 Red. masses --      1.1057                 1.0857                 1.0859
 Frc consts  --     12.9076                14.3814                14.3979
 IR Inten    --      5.9999                 7.8978                 2.0462

                     97                     98                     99
                      A                      A                      A
 Frequencies --   4746.0668              4755.1450              4759.4334
 Red. masses --      1.0878                 1.0885                 1.0881
 Frc consts  --     14.4372                14.5019                14.5215
 IR Inten    --      9.4631                 4.3351                 0.3809

                    100                    101                    102
                      A                      A                      A
 Frequencies --   4764.9526              4765.5212              4769.6353
 Red. masses --      1.0885                 1.0899                 1.0922
 Frc consts  --     14.5606                14.5839                14.6390
 IR Inten    --      0.0885                19.4116                 9.6002

                    103                    104                    105
                      A                      A                      A
 Frequencies --   4771.5132              4773.1409              4779.7742
 Red. masses --      1.0916                 1.0910                 1.0914
 Frc consts  --     14.6434                14.6445                14.6913
 IR Inten    --      0.9782                 6.8303                 0.3197

 - Thermochemistry -
 -------------------
 Temperature   298.150 Kelvin.  Pressure   1.00000 Atm.
 Atom     1 has atomic number  7 and mass  14.00307

 Molecular mass:   352.03370 amu.
 Principal axes and moments of inertia in atomic units:
                           1         2         3
     Eigenvalues --  4147.12850********************
           X            0.99970   0.02401   0.00430
           Y           -0.02274   0.98128  -0.19123
           Z           -0.00881   0.19108   0.98154
 This molecule is an asymmetric top.
 Rotational symmetry number  1.
 Warning -- assumption of classical behavior for rotation
           may cause significant error
 Rotational temperatures (Kelvin)      0.02089     0.00418     0.00412
 Rotational constants (GHZ):           0.43518     0.08713     0.08588
   27 imaginary frequencies ignored.
 Zero-point vibrational energy     752523.8 (Joules/Mol)
                                  179.85751 (Kcal/Mol)
 Warning -- explicit consideration of  20 degrees of freedom as
           vibrations may cause significant error
 Vibrational temperatures:    113.90   152.32   168.08   221.40   240.23
          (Kelvin)            316.49   342.49   375.53   392.89   462.31
                              472.01   617.78   657.83   678.80   684.15
                              691.59   748.82   796.33   803.70   818.25
                              898.46   912.34   923.70   945.54   989.29
                             1021.56  1051.04  1123.03  1138.40  1155.77
                             1164.38  1194.03  1204.70  1251.90  1289.11
                             1327.01  1336.70  1406.00  1417.74  1445.21
                             1546.99  1583.96  1633.47  1651.00  1657.12
                             1822.95  1857.69  1914.34  2036.73  2074.80
                             2109.95  2141.02  2143.61  2176.48  2199.84
                             2250.35  2345.34  2409.84  2449.51  2458.65
                             2461.55  2496.11  2543.78  5917.33  6089.54
                             6339.12  6404.32  6821.95  6825.27  6828.53
                             6841.59  6847.76  6855.70  6856.52  6862.44
                             6865.14  6867.49  6877.03

 Zero-point correction=                           0.286621 (Hartree/Particle)
 Thermal correction to Energy=                    0.299550
 Thermal correction to Enthalpy=                  0.300494
 Thermal correction to Gibbs Free Energy=         0.245681
 Sum of electronic and zero-point Energies=          -3434.497031
 Sum of electronic and thermal Energies=             -3434.484102
 Sum of electronic and thermal Enthalpies=           -3434.483158
 Sum of electronic and thermal Free Energies=        -3434.537972

                     E (Thermal)             CV                S
                      KCal/Mol        Cal/Mol-Kelvin    Cal/Mol-Kelvin
 Total                  187.971             52.971            115.365
 Electronic               0.000              0.000              0.000
 Translational            0.889              2.981             43.470
 Rotational               0.889              2.981             35.844
 Vibrational            186.193             47.009             36.051
 Vibration     1          0.600              1.963              3.912
 Vibration     2          0.605              1.945              3.343
 Vibration     3          0.608              1.935              3.152
 Vibration     4          0.619              1.898              2.624
 Vibration     5          0.624              1.883              2.469
 Vibration     6          0.647              1.811              1.959
 Vibration     7          0.656              1.782              1.817
 Vibration     8          0.669              1.744              1.655
 Vibration     9          0.676              1.723              1.577
 Vibration    10          0.707              1.633              1.303
 Vibration    11          0.711              1.619              1.270
 Vibration    12          0.791              1.406              0.861
 Vibration    13          0.815              1.345              0.774
 Vibration    14          0.829              1.313              0.733
 Vibration    15          0.832              1.304              0.722
 Vibration    16          0.837              1.293              0.708
 Vibration    17          0.875              1.205              0.609
 Vibration    18          0.909              1.132              0.537
 Vibration    19          0.914              1.121              0.527
 Vibration    20          0.925              1.099              0.507

 Normal termination of Gaussian 16 at Mon Mar  6 11:34:58 2023.
