 Gaussian 16, Revision C.01,
 Gaussian 16:  ES64L-G16RevC.01  3-Jul-2019

 ----------------------------------------------------------------------
 #p pop=(regular,nbo,savenbos) freq=noraman def2svp empiricaldispersion
 =gd3bj output=wfx pbe1pbe
 ----------------------------------------------------------------------

 ----------------------------------------
 FIZMAD_Complex_1_Ligand_1_ON_Cu_oriented
 ----------------------------------------
 Symbolic Z-matrix:
 Charge = -1 Multiplicity = 1

                         Standard orientation:
 ---------------------------------------------------------------------
 Center     Atomic      Atomic             Coordinates (Angstroms)
 Number     Number       Type             X           Y           Z
 ---------------------------------------------------------------------
      1          8           0        0.131404   -2.259395   -0.699162
      2          8           0       -4.435414   -0.157268    0.377920
      3          8           0       -3.570372    1.687360   -0.471433
      4          7           0        0.267001    0.000437   -0.443168
      5          7           0        2.118919   -1.341493   -0.099942
      6          7           0       -2.119190   -1.239444    1.039067
      7          6           0        0.785526   -1.268050   -0.428466
      8          6           0        2.974990   -0.285602    0.158440
      9          6           0        2.376331    1.022198    0.056935
     10          6           0        3.226290    2.236416    0.266684
     11          6           0        1.065064    1.102576   -0.218902
     12          6           0       -1.159696    0.188560   -0.756721
     13          6           0       -2.053568    0.123554    0.459626
     14          6           0       -3.457915    0.606388    0.082873
     15          1           0        2.366468   -2.185472   -0.083651
     16          1           0        0.658813    1.970552   -0.260089
     17          1           0       -1.699157    0.711481    1.123009
     18          1           0        2.892782    2.744038    0.997737
     19          1           0        3.199120    2.788832   -0.522605
     20          1           0        4.122417    1.986802    0.431645
     21          1           0       -1.429805   -0.486215   -1.377872
     22          1           0       -1.267507    1.043015   -1.175955
     23          1           0       -1.637780   -1.837859    0.479185
     24          1           0       -1.721009   -1.231862    1.904730
     25          8           0        4.137684   -0.495203    0.453845
 ---------------------------------------------------------------------

 SCF Done:  E(RPBE1PBE) =  -774.563439964     A.U. after   18 cycles

 The electronic state is 1-A.
 Alpha  occ. eigenvalues --  -19.09456 -19.09267 -18.94015 -18.92031 -14.36101
 Alpha  occ. eigenvalues --  -14.34620 -14.19865 -10.28044 -10.25626 -10.19928
 Alpha  occ. eigenvalues --  -10.15863 -10.12480 -10.11864 -10.09888 -10.08715
 Alpha  occ. eigenvalues --   -1.01030  -0.97313  -0.90454  -0.87330  -0.83825
 Alpha  occ. eigenvalues --   -0.76710  -0.75414  -0.72455  -0.67603  -0.65687
 Alpha  occ. eigenvalues --   -0.62845  -0.57180  -0.52925  -0.50544  -0.49404
 Alpha  occ. eigenvalues --   -0.44050  -0.42039  -0.39988  -0.38784  -0.37553
 Alpha  occ. eigenvalues --   -0.36941  -0.36095  -0.34920  -0.34538  -0.33176
 Alpha  occ. eigenvalues --   -0.32063  -0.31641  -0.29297  -0.27951  -0.25374
 Alpha  occ. eigenvalues --   -0.23534  -0.21389  -0.21216  -0.19333  -0.18995
 Alpha  occ. eigenvalues --   -0.18523  -0.15248  -0.10321  -0.04448  -0.04361
 Alpha  occ. eigenvalues --   -0.01796
 Alpha virt. eigenvalues --    0.05371   0.11379   0.16868   0.19621   0.20496
 Alpha virt. eigenvalues --    0.20893   0.21611   0.24971   0.25433   0.25616
 Alpha virt. eigenvalues --    0.26626   0.28136   0.29172   0.30221   0.31194

 Mulliken charges:
               1
     1  O   -0.289931
     2  O   -0.434427
     3  O   -0.413493
     4  N   -0.343557
     5  N   -0.081080
     6  N   -0.124918
     7  C    0.252042
     8  C    0.233839
     9  C   -0.395768
    10  C    0.332327
    11  C    0.262348
    12  C    0.317684
    13  C   -0.027225
    14  C    0.109423
    15  H    0.064458
    16  H   -0.050839
    17  H   -0.076259
    18  H   -0.020084
    19  H   -0.018608
    20  H   -0.040364
    21  H   -0.028919
    22  H   -0.050878
    23  H    0.055237
    24  H    0.045157
    25  O   -0.276164
 Sum of Mulliken charges =  -1.00000

 Dipole moment (field-independent basis, Debye):
    X=             14.7641    Y=              0.7957    Z=             -0.2073  Tot=             14.7870
 Quadrupole moment (field-independent basis, Debye-Ang):
   XX=           -187.6828   YY=            -96.3307   ZZ=            -86.5684
   XY=             10.2577   XZ=             -1.5591   YZ=              1.6208

  Exact polarizability:     158.338       9.241     105.805       7.115      -1.930      68.816
 Approx polarizability:     221.576      15.981     161.450      15.702      -3.903     103.056

 Summary of Natural Population Analysis:

                                       Natural Population
                Natural  -----------------------------------------------
    Atom  No    Charge         Core      Valence    Rydberg      Total
 -----------------------------------------------------------------------
      O    1   -0.67075      1.99973     6.66127    0.00975     8.67075
      O    2   -0.77156      1.99977     6.76319    0.00861     8.77156
      O    3   -0.79443      1.99973     6.78385    0.01085     8.79443
      N    4   -0.48170      1.99910     5.47048    0.01212     7.48170
      N    5   -0.62443      1.99904     5.61117    0.01422     7.62443
      N    6   -0.83856      1.99947     5.81922    0.01987     7.83856
      C    7    0.87158      1.99931     3.07833    0.05078     5.12842
      C    8    0.67488      1.99910     3.28058    0.04544     5.32512
      C    9   -0.18286      1.99896     4.16735    0.01655     6.18286
      C   10   -0.54751      1.99912     4.53815    0.01024     6.54751
      C   11    0.11924      1.99892     3.86453    0.01730     5.88076
      C   12   -0.14527      1.99894     4.12430    0.02203     6.14527
      C   13   -0.10210      1.99890     4.07904    0.02416     6.10210
      C   14    0.77276      1.99944     3.15322    0.07457     5.22724
      H   15    0.37747      0.00000     0.61537    0.00716     0.62253
      H   16    0.18633      0.00000     0.81027    0.00340     0.81367
      H   17    0.15666      0.00000     0.83810    0.00524     0.84334
      H   18    0.19094      0.00000     0.80653    0.00252     0.80906
      H   19    0.19329      0.00000     0.80421    0.00251     0.80671
      H   20    0.20389      0.00000     0.79177    0.00434     0.79611
      H   21    0.19551      0.00000     0.79915    0.00534     0.80449
      H   22    0.19541      0.00000     0.79437    0.01022     0.80459
      H   23    0.34691      0.00000     0.64698    0.00610     0.65309
      H   24    0.32265      0.00000     0.67125    0.00610     0.67735
      O   25   -0.64836      1.99974     6.63843    0.01019     8.64836
 =======================================================================
   * Total *   -1.00000     29.98927    81.61111    0.39962   112.00000

 ******   16 imaginary frequencies (negative Signs) ******

                      1                      2                      3
                      A                      A                      A
 Frequencies --  -1591.7807             -1478.4737             -1175.2141
 Red. masses --      1.0760                 1.0106                 1.0284
 Frc consts  --      1.6063                 1.3016                 0.8369
 IR Inten    --     78.5415                 0.0734                 2.5577

                      4                      5                      6
                      A                      A                      A
 Frequencies --  -1084.8005             -1059.0624             -1054.1930
 Red. masses --      1.0388                 1.0368                 1.0281
 Frc consts  --      0.7203                 0.6851                 0.6732
 IR Inten    --      9.1774                38.0188                 0.7205

                      7                      8                      9
                      A                      A                      A
 Frequencies --  -1041.0588              -916.3013              -807.2773
 Red. masses --      1.1003                 1.1044                 1.1228
 Frc consts  --      0.7026                 0.5463                 0.4311
 IR Inten    --     12.5441                10.4281                 6.9291

                     10                     11                     12
                      A                      A                      A
 Frequencies --   -700.0433              -646.6461              -470.7991
 Red. masses --      1.1606                 1.2410                 1.3674
 Frc consts  --      0.3351                 0.3057                 0.1786
 IR Inten    --    222.9718                 1.4643                 1.9513

                     13                     14                     15
                      A                      A                      A
 Frequencies --   -404.7446              -208.8128              -135.1790
 Red. masses --      1.6645                 1.8368                 2.8732
 Frc consts  --      0.1607                 0.0472                 0.0309
 IR Inten    --      2.6985                 5.1630                 0.5991

                     16                     17                     18
                      A                      A                      A
 Frequencies --    -83.9683                92.3386               158.3372
 Red. masses --      3.1825                 9.6486                 7.1975
 Frc consts  --      0.0132                 0.0485                 0.1063
 IR Inten    --      2.1669                 8.1388                 0.8735

                     19                     20                     21
                      A                      A                      A
 Frequencies --    181.2324               208.2091               244.4103
 Red. masses --      8.7446                 5.3049                 2.2952
 Frc consts  --      0.1692                 0.1355                 0.0808
 IR Inten    --     14.8011                 4.3753                 2.2054

                     22                     23                     24
                      A                      A                      A
 Frequencies --    261.1123               370.0928               393.6513
 Red. masses --      1.6040                 5.6359                 8.7705
 Frc consts  --      0.0644                 0.4548                 0.8008
 IR Inten    --     17.2528                 1.2061                 8.6532

                     25                     26                     27
                      A                      A                      A
 Frequencies --    410.1448               449.0183               462.3562
 Red. masses --      7.3978                 5.0336                 7.0152
 Frc consts  --      0.7332                 0.5979                 0.8836
 IR Inten    --      8.1495                 9.6741                14.5341

                     28                     29                     30
                      A                      A                      A
 Frequencies --    522.0936               556.9393               561.2179
 Red. masses --      3.9737                 5.3966                 4.3966
 Frc consts  --      0.6382                 0.9862                 0.8159
 IR Inten    --      2.4829                 2.8538                 1.2832

                     31                     32                     33
                      A                      A                      A
 Frequencies --    592.2133               599.1991               718.1256
 Red. masses --      5.3000                 5.7705                 5.5145
 Frc consts  --      1.0952                 1.2207                 1.6755
 IR Inten    --     58.7646                22.1613                12.5510

                     34                     35                     36
                      A                      A                      A
 Frequencies --    741.1300               777.1796               790.0881
 Red. masses --      4.2140                 6.7515                 4.8825
 Frc consts  --      1.3637                 2.4027                 1.7958
 IR Inten    --     18.6684                 7.9854                 8.4688

                     37                     38                     39
                      A                      A                      A
 Frequencies --    801.7384               819.7214               855.6434
 Red. masses --      4.8266                 5.3897                 3.1412
 Frc consts  --      1.8279                 2.1338                 1.3550
 IR Inten    --      5.6610                22.5907                 8.0352

                     40                     41                     42
                      A                      A                      A
 Frequencies --    859.4927               871.9954               905.1874
 Red. masses --      6.6111                 2.8606                 1.6518
 Frc consts  --      2.8774                 1.2816                 0.7974
 IR Inten    --     19.7291                 5.3908                25.4610

                     43                     44                     45
                      A                      A                      A
 Frequencies --    961.0639               992.6653              1001.3092
 Red. masses --      1.2809                 1.2112                 3.7671
 Frc consts  --      0.6970                 0.7032                 2.2253
 IR Inten    --     10.1087                16.6252                 4.6495

                     46                     47                     48
                      A                      A                      A
 Frequencies --   1038.4973              1157.3911              1206.7259
 Red. masses --      5.0386                 4.3008                 3.9178
 Frc consts  --      3.2016                 3.3944                 3.3613
 IR Inten    --     20.6616                12.3534                 4.2425

                     49                     50                     51
                      A                      A                      A
 Frequencies --   1262.0085              1267.8738              1347.0299
 Red. masses --      7.5553                 9.1560                 7.7776
 Frc consts  --      7.0897                 8.6718                 8.3148
 IR Inten    --     11.8738                 8.0991               105.2256

                     52                     53                     54
                      A                      A                      A
 Frequencies --   1395.5015              1423.9355              1443.6698
 Red. masses --      1.6933                 4.3407                 3.5181
 Frc consts  --      1.9428                 5.1856                 4.3201
 IR Inten    --     98.1427               227.5099                94.8772

                     55                     56                     57
                      A                      A                      A
 Frequencies --   1561.7081              1750.9891              1817.7982
 Red. masses --     10.7075                10.6997                12.2247
 Frc consts  --     15.3864                19.3281                23.8001
 IR Inten    --    156.6115                69.0241               975.0304

                     58                     59                     60
                      A                      A                      A
 Frequencies --   1846.5683              1851.5270              4348.3230
 Red. masses --     12.7739                12.9378                 1.0505
 Frc consts  --     25.6628                26.1318                11.7028
 IR Inten    --    395.1477               394.8188                 5.9031

                     61                     62                     63
                      A                      A                      A
 Frequencies --   4483.4785              4506.0079              4593.7717
 Red. masses --      1.0948                 1.0485                 1.0603
 Frc consts  --     12.9666                12.5435                13.1831
 IR Inten    --     27.2014                11.1021                 2.2999

                     64                     65                     66
                      A                      A                      A
 Frequencies --   4663.1814              4673.5869              4727.3339
 Red. masses --      1.0906                 1.0872                 1.1093
 Frc consts  --     13.9726                13.9918                14.6066
 IR Inten    --      3.0938                13.3769                 1.7938

                     67                     68                     69
                      A                      A                      A
 Frequencies --   4729.0080              4856.5800              5532.8621
 Red. masses --      1.0910                 1.1045                 1.0768
 Frc consts  --     14.3750                15.3488                19.4220
 IR Inten    --      2.3220                 0.6955                81.1811

 - Thermochemistry -
 -------------------
 Temperature   298.150 Kelvin.  Pressure   1.00000 Atm.
 Atom     1 has atomic number  8 and mass  15.99491

 Molecular mass:   212.06713 amu.
 Principal axes and moments of inertia in atomic units:
                           1         2         3
     Eigenvalues --  1368.962625580.054206531.81710
           X            0.99979   0.02068   0.00005
           Y           -0.02068   0.99978  -0.00420
           Z           -0.00013   0.00420   0.99999
 This molecule is an asymmetric top.
 Rotational symmetry number  1.
 Warning -- assumption of classical behavior for rotation
           may cause significant error
 Rotational temperatures (Kelvin)      0.06327     0.01552     0.01326
 Rotational constants (GHZ):           1.31833     0.32343     0.27630
   16 imaginary frequencies ignored.
 Zero-point vibrational energy     506279.2 (Joules/Mol)
                                  121.00362 (Kcal/Mol)
 Warning -- explicit consideration of  16 degrees of freedom as
           vibrations may cause significant error
 Vibrational temperatures:    132.85   227.81   260.75   299.57   351.65
          (Kelvin)            375.68   532.48   566.38   590.11   646.04
                              665.23   751.18   801.31   807.47   852.06
                              862.11  1033.22  1066.32  1118.19  1136.76
                             1153.52  1179.40  1231.08  1236.62  1254.61
                             1302.36  1382.76  1428.22  1440.66  1494.17
                             1665.23  1736.21  1815.75  1824.19  1938.08
                             2007.82  2048.73  2077.12  2246.95  2519.28
                             2615.41  2656.80  2663.93  6256.27  6450.73
                             6483.14  6609.41  6709.28  6724.25  6801.58
                             6803.99  6987.54  7960.55

 Zero-point correction=                           0.192832 (Hartree/Particle)
 Thermal correction to Energy=                    0.202530
 Thermal correction to Enthalpy=                  0.203474
 Thermal correction to Gibbs Free Energy=         0.156925
 Sum of electronic and zero-point Energies=           -774.370608
 Sum of electronic and thermal Energies=              -774.360910
 Sum of electronic and thermal Enthalpies=            -774.359966
 Sum of electronic and thermal Free Energies=         -774.406515

                     E (Thermal)             CV                S
                      KCal/Mol        Cal/Mol-Kelvin    Cal/Mol-Kelvin
 Total                  127.089             38.894             97.972
 Electronic               0.000              0.000              0.000
 Translational            0.889              2.981             41.959
 Rotational               0.889              2.981             32.278
 Vibrational            125.312             32.932             23.734
 Vibration     1          0.602              1.955              3.610
 Vibration     2          0.621              1.893              2.570
 Vibration     3          0.630              1.865              2.316
 Vibration     4          0.642              1.828              2.059
 Vibration     5          0.660              1.772              1.771
 Vibration     6          0.669              1.744              1.654
 Vibration     7          0.742              1.534              1.079
 Vibration     8          0.761              1.484              0.986
 Vibration     9          0.774              1.448              0.926
 Vibration    10          0.808              1.363              0.799
 Vibration    11          0.820              1.334              0.759
 Vibration    12          0.877              1.201              0.605
 Vibration    13          0.912              1.125              0.530
 Vibration    14          0.917              1.115              0.521
 Vibration    15          0.950              1.048              0.463
 Vibration    16          0.957              1.033              0.451

 Normal termination of Gaussian 16 at Mon Mar  6 10:42:56 2023.
