 Gaussian 16, Revision C.01,
 Gaussian 16:  ES64L-G16RevC.01  3-Jul-2019

 ----------------------------------------------------------------------
 #p pop=(regular,nbo,savenbos) freq=noraman def2svp empiricaldispersion
 =gd3bj output=wfx pbe1pbe
 ----------------------------------------------------------------------

 ----------------------------------------
 FOMBEP_Complex_0_Ligand_1_ON_Cu_oriented
 ----------------------------------------
 Symbolic Z-matrix:
 Charge = -1 Multiplicity = 1

                         Standard orientation:
 ---------------------------------------------------------------------
 Center     Atomic      Atomic             Coordinates (Angstroms)
 Number     Number       Type             X           Y           Z
 ---------------------------------------------------------------------
      1          6           0       -0.513773    1.566004   -0.057872
      2          6           0       -1.575823    0.602357    0.115871
      3          1           0       -2.422837    0.895770    0.363480
      4          6           0       -1.362903   -0.701018   -0.073921
      5          6           0       -2.384471   -1.778329   -0.027724
      6          1           0       -3.260137   -1.392491   -0.110072
      7          1           0       -2.318086   -2.246540    0.807293
      8          1           0       -2.235843   -2.391567   -0.752120
      9          7           0        0.747131    1.200921   -0.290759
     10          8           0       -0.771697    2.813851   -0.048466
     11          8           0       -0.117343   -1.184789   -0.385161
     12          8           0        2.212556   -0.723350   -0.821839
     13          8           0        1.340837   -0.493003    1.431745
     14         16           0        1.169624   -0.294211    0.036149
 ---------------------------------------------------------------------

 SCF Done:  E(RPBE1PBE) =  -907.395291956     A.U. after   16 cycles

 The electronic state is 1-A.
 Alpha  occ. eigenvalues --  -89.07637 -19.11903 -19.02697 -19.02550 -18.97796
 Alpha  occ. eigenvalues --  -14.18783 -10.17872 -10.14995 -10.09711 -10.07557
 Alpha  occ. eigenvalues --   -8.04353  -5.98730  -5.98429  -5.98295  -1.03100
 Alpha  occ. eigenvalues --   -0.93066  -0.86599  -0.84103  -0.73859  -0.71179
 Alpha  occ. eigenvalues --   -0.63365  -0.54596  -0.48487  -0.42228  -0.39703
 Alpha  occ. eigenvalues --   -0.37690  -0.35775  -0.33783  -0.32790  -0.31598
 Alpha  occ. eigenvalues --   -0.28028  -0.26671  -0.24823  -0.24032  -0.20921
 Alpha  occ. eigenvalues --   -0.19314  -0.17190  -0.15691  -0.12448  -0.11328
 Alpha  occ. eigenvalues --   -0.07942  -0.07162
 Alpha virt. eigenvalues --    0.12593   0.19379   0.24031   0.24832   0.26644
 Alpha virt. eigenvalues --    0.26992   0.29469   0.31467   0.34483   0.34907
 Alpha virt. eigenvalues --    0.37286   0.38037   0.43444   0.46096   0.52267

 Mulliken charges:
               1
     1  C    0.179498
     2  C   -0.037020
     3  H   -0.132417
     4  C    0.032012
     5  C    0.285173
     6  H   -0.041110
     7  H   -0.006950
     8  H   -0.020653
     9  N   -0.405929
    10  O   -0.399076
    11  O   -0.441670
    12  O   -0.490355
    13  O   -0.496982
    14  S    0.975479
 Sum of Mulliken charges =  -1.00000

 Dipole moment (field-independent basis, Debye):
    X=             -5.1196    Y=             -5.6703    Z=              0.0944  Tot=              7.6401
 Quadrupole moment (field-independent basis, Debye-Ang):
   XX=            -73.3495   YY=            -86.0548   ZZ=            -70.1742
   XY=              7.7510   XZ=              0.3890   YZ=              0.9470

  Exact polarizability:      74.259      -3.589      83.558      -2.459       0.872      46.142
 Approx polarizability:     101.702     -16.151     142.132      -6.197       3.473      73.092

 Summary of Natural Population Analysis:

                                       Natural Population
                Natural  -----------------------------------------------
    Atom  No    Charge         Core      Valence    Rydberg      Total
 -----------------------------------------------------------------------
      C    1    0.62014      1.99916     3.32963    0.05106     5.37986
      C    2   -0.36777      1.99878     4.35071    0.01827     6.36777
      H    3    0.18325      0.00000     0.81259    0.00416     0.81675
      C    4    0.38548      1.99893     3.58929    0.02630     5.61452
      C    5   -0.58134      1.99909     4.57395    0.00831     6.58134
      H    6    0.19167      0.00000     0.80587    0.00246     0.80833
      H    7    0.19698      0.00000     0.79942    0.00361     0.80302
      H    8    0.19806      0.00000     0.79795    0.00400     0.80194
      N    9   -0.94136      1.99918     5.92633    0.01586     7.94136
      O   10   -0.70143      1.99977     6.69255    0.00911     8.70143
      O   11   -0.76021      1.99963     6.74912    0.01146     8.76021
      O   12   -0.95603      1.99974     6.94764    0.00865     8.95603
      O   13   -0.96570      1.99974     6.95726    0.00870     8.96570
      S   14    2.49828      9.99852     3.25526    0.24794    13.50172
 =======================================================================
   * Total *   -1.00000     27.99255    55.58755    0.41989    84.00000

 ******    6 imaginary frequencies (negative Signs) ******

                      1                      2                      3
                      A                      A                      A
 Frequencies --  -1398.2932             -1376.7600             -1024.8804
 Red. masses --      1.0140                 1.0754                 1.0971
 Frc consts  --      1.1682                 1.2010                 0.6790
 IR Inten    --      0.2883                16.2351                 6.9890

                      4                      5                      6
                      A                      A                      A
 Frequencies --  -1007.4853              -963.8417               -77.0392
 Red. masses --      1.0554                 1.0834                14.9233
 Frc consts  --      0.6312                 0.5930                 0.0522
 IR Inten    --      1.9231                 5.2514                 1.0198

                      7                      8                      9
                      A                      A                      A
 Frequencies --    113.4651               265.3399               315.9417
 Red. masses --     11.9933                 8.5301                11.2307
 Frc consts  --      0.0910                 0.3538                 0.6605
 IR Inten    --      1.0171                 3.5609                 1.6766

                     10                     11                     12
                      A                      A                      A
 Frequencies --    375.3826               393.2488               438.1699
 Red. masses --      7.9046                 1.1827                12.6042
 Frc consts  --      0.6563                 0.1078                 1.4258
 IR Inten    --      7.3710                17.6605                17.4520

                     13                     14                     15
                      A                      A                      A
 Frequencies --    458.3448               503.6801               529.5109
 Red. masses --      8.7548                 9.7000                12.1396
 Frc consts  --      1.0836                 1.4499                 2.0054
 IR Inten    --     10.7645                 5.3641                22.8823

                     16                     17                     18
                      A                      A                      A
 Frequencies --    552.8735               633.2557               667.5270
 Red. masses --     12.2950                10.5434                13.1284
 Frc consts  --      2.2143                 2.4911                 3.4467
 IR Inten    --     21.7953                39.5820                78.9109

                     19                     20                     21
                      A                      A                      A
 Frequencies --    724.6538               795.3086               853.1827
 Red. masses --      4.8031                 9.1877                 6.7025
 Frc consts  --      1.4860                 3.4240                 2.8746
 IR Inten    --     11.0023                19.6827                72.3592

                     22                     23                     24
                      A                      A                      A
 Frequencies --    908.6459               970.8384              1010.3278
 Red. masses --      4.8735                 1.7397                 1.3071
 Frc consts  --      2.3707                 0.9661                 0.7861
 IR Inten    --     97.9870               106.8127                19.1745

                     25                     26                     27
                      A                      A                      A
 Frequencies --   1022.1748              1150.3702              1300.5622
 Red. masses --      2.7388                 9.3912                 9.2747
 Frc consts  --      1.6860                 7.3223                 9.2430
 IR Inten    --     55.1320                11.9414               157.7206

                     28                     29                     30
                      A                      A                      A
 Frequencies --   1348.9467              1524.7400              1541.8377
 Red. masses --     16.5658                13.6485                17.3877
 Frc consts  --     17.7604                18.6951                24.3540
 IR Inten    --    338.9867               181.4546               307.0097

                     31                     32                     33
                      A                      A                      A
 Frequencies --   1600.5379              1765.5177              4467.8442
 Red. masses --     12.0863                10.2283                 1.0326
 Frc consts  --     18.2421                18.7843                12.1449
 IR Inten    --    511.6639               157.9257                 8.1232

                     34                     35                     36
                      A                      A                      A
 Frequencies --   4673.0160              4677.5176              5040.2255
 Red. masses --      1.1064                 1.1063                 1.0896
 Frc consts  --     14.2354                14.2610                16.3093
 IR Inten    --      1.1972                 1.0292                 1.3091

 - Thermochemistry -
 -------------------
 Temperature   298.150 Kelvin.  Pressure   1.00000 Atm.
 Atom     1 has atomic number  6 and mass  12.00000

 Molecular mass:   161.98610 amu.
 Principal axes and moments of inertia in atomic units:
                           1         2         3
     Eigenvalues --  1144.819161324.350942120.11820
           X            0.96261   0.27088  -0.00259
           Y           -0.27087   0.96261   0.00185
           Z            0.00300  -0.00108   0.99999
 This molecule is an asymmetric top.
 Rotational symmetry number  1.
 Warning -- assumption of classical behavior for rotation
           may cause significant error
 Rotational temperatures (Kelvin)      0.07566     0.06540     0.04085
 Rotational constants (GHZ):           1.57644     1.36274     0.85125
    6 imaginary frequencies ignored.
 Zero-point vibrational energy     242979.4 (Joules/Mol)
                                   58.07348 (Kcal/Mol)
 Warning -- explicit consideration of  10 degrees of freedom as
           vibrations may cause significant error
 Vibrational temperatures:    163.25   381.76   454.57   540.09   565.80
          (Kelvin)            630.43   659.46   724.68   761.85   795.46
                              911.11   960.42  1042.62  1144.27  1227.54
                             1307.34  1396.82  1453.64  1470.68  1655.13
                             1871.22  1940.83  2193.76  2218.36  2302.82
                             2540.19  6428.23  6723.43  6729.90  7251.76

 Zero-point correction=                           0.092546 (Hartree/Particle)
 Thermal correction to Energy=                    0.099480
 Thermal correction to Enthalpy=                  0.100424
 Thermal correction to Gibbs Free Energy=         0.060395
 Sum of electronic and zero-point Energies=           -907.302746
 Sum of electronic and thermal Energies=              -907.295812
 Sum of electronic and thermal Enthalpies=            -907.294868
 Sum of electronic and thermal Free Energies=         -907.334897

                     E (Thermal)             CV                S
                      KCal/Mol        Cal/Mol-Kelvin    Cal/Mol-Kelvin
 Total                   62.425             26.785             84.248
 Electronic               0.000              0.000              0.000
 Translational            0.889              2.981             41.156
 Rotational               0.889              2.981             29.554
 Vibrational             60.647             20.824             13.538
 Vibration     1          0.607              1.938              3.209
 Vibration     2          0.671              1.737              1.626
 Vibration     3          0.703              1.643              1.331
 Vibration     4          0.746              1.523              1.058
 Vibration     5          0.760              1.485              0.988
 Vibration     6          0.798              1.387              0.832
 Vibration     7          0.816              1.342              0.771
 Vibration     8          0.859              1.242              0.649
 Vibration     9          0.884              1.185              0.588
 Vibration    10          0.908              1.133              0.538

 Normal termination of Gaussian 16 at Mon Mar  6 10:27:08 2023.
