 Gaussian 16, Revision C.01,
 Gaussian 16:  ES64L-G16RevC.01  3-Jul-2019

 ----------------------------------------------------------------------
 #p pop=(regular,nbo,savenbos) freq=noraman def2svp empiricaldispersion
 =gd3bj output=wfx pbe1pbe
 ----------------------------------------------------------------------

 ----------------------------------------
 FUMGIF_Complex_0_Ligand_2_ON_Cu_oriented
 ----------------------------------------
 Symbolic Z-matrix:
 Charge = -1 Multiplicity = 1

                         Standard orientation:
 ---------------------------------------------------------------------
 Center     Atomic      Atomic             Coordinates (Angstroms)
 Number     Number       Type             X           Y           Z
 ---------------------------------------------------------------------
      1          6           0       -0.081504    0.378243    0.093820
      2          6           0        0.384252   -0.682706   -0.677113
      3          1           0       -0.224813   -1.201654   -1.151135
      4          6           0        2.198352    0.837376    0.735735
      5          1           0        2.806520    1.344184    1.224423
      6          6           0        0.845655    1.128723    0.790876
      7          1           0        0.555158    1.844689    1.308012
      8          6           0       -1.544438    0.734721    0.092004
      9          1           0       -1.689667    1.395184    0.801153
     10          7           0       -1.972433    1.352615   -1.191966
     11          1           0       -1.403124    1.232186   -1.806459
     12          1           0       -2.023780    2.206094   -1.115027
     13          6           0       -2.443329   -0.462202    0.384652
     14          8           0       -2.292342   -1.060156    1.465124
     15          6           0        1.730415   -0.982207   -0.752816
     16          1           0        2.021079   -1.695980   -1.272400
     17          6           0        2.644369   -0.212695   -0.049747
     18          8           0        3.965570   -0.530291   -0.163505
     19          8           0       -3.305567   -0.799753   -0.484209
     20          1           0        4.421735    0.093062    0.111455
 ---------------------------------------------------------------------

 SCF Done:  E(RPBE1PBE) =  -588.840756169     A.U. after   17 cycles

 The electronic state is 1-A.
 Alpha  occ. eigenvalues --  -19.12480 -18.91848 -18.91374 -14.17771 -10.17725
 Alpha  occ. eigenvalues --  -10.10623 -10.10263 -10.09958 -10.09840 -10.09315
 Alpha  occ. eigenvalues --  -10.08651 -10.08029  -1.00889  -0.81766  -0.78225
 Alpha  occ. eigenvalues --   -0.75987  -0.71024  -0.66803  -0.65843  -0.57240
 Alpha  occ. eigenvalues --   -0.54237  -0.51054  -0.47940  -0.40343  -0.39713
 Alpha  occ. eigenvalues --   -0.38021  -0.34615  -0.33882  -0.32836  -0.32384
 Alpha  occ. eigenvalues --   -0.30807  -0.27984  -0.25557  -0.24222  -0.23908
 Alpha  occ. eigenvalues --   -0.21824  -0.17817  -0.16613  -0.15276  -0.12421
 Alpha  occ. eigenvalues --   -0.09502  -0.03231  -0.02909  -0.00480
 Alpha virt. eigenvalues --    0.11186   0.13386   0.17723   0.20918   0.23146
 Alpha virt. eigenvalues --    0.24178   0.26185   0.28102   0.28704   0.29999
 Alpha virt. eigenvalues --    0.31663   0.33518   0.35377   0.39406   0.40904

 Mulliken charges:
               1
     1  C   -0.038441
     2  C    0.113924
     3  H   -0.097813
     4  C    0.019838
     5  H   -0.149867
     6  C    0.085610
     7  H   -0.134878
     8  C    0.069715
     9  H   -0.072782
    10  N    0.005310
    11  H   -0.017682
    12  H   -0.007639
    13  C    0.102643
    14  O   -0.432828
    15  C    0.048633
    16  H   -0.130164
    17  C    0.141246
    18  O   -0.148422
    19  O   -0.436254
    20  H    0.079853
 Sum of Mulliken charges =  -1.00000

 Dipole moment (field-independent basis, Debye):
    X=             12.1381    Y=              5.9036    Z=             -1.4004  Tot=             13.5701
 Quadrupole moment (field-independent basis, Debye-Ang):
   XX=           -112.0257   YY=            -72.2409   ZZ=            -77.2200
   XY=             -8.2331   XZ=              3.5452   YZ=              5.8501

  Exact polarizability:     127.024      -1.199      77.859       6.482      10.891      72.412
 Approx polarizability:     182.295      -2.173     123.272      15.909      25.205     120.591

 Summary of Natural Population Analysis:

                                       Natural Population
                Natural  -----------------------------------------------
    Atom  No    Charge         Core      Valence    Rydberg      Total
 -----------------------------------------------------------------------
      C    1   -0.02917      1.99902     4.00945    0.02070     6.02917
      C    2   -0.13497      1.99900     4.12004    0.01593     6.13497
      H    3    0.18170      0.00000     0.81370    0.00460     0.81830
      C    4   -0.28144      1.99899     4.26630    0.01615     6.28144
      H    5    0.16277      0.00000     0.83366    0.00357     0.83723
      C    6   -0.16108      1.99898     4.14669    0.01541     6.16108
      H    7    0.16552      0.00000     0.83109    0.00338     0.83448
      C    8   -0.13717      1.99883     4.11229    0.02605     6.13717
      H    9    0.17897      0.00000     0.81521    0.00583     0.82103
      N   10   -0.73980      1.99931     5.71286    0.02763     7.73980
      H   11    0.29100      0.00000     0.70320    0.00580     0.70900
      H   12    0.28988      0.00000     0.70397    0.00615     0.71012
      C   13    0.77035      1.99944     3.15489    0.07533     5.22965
      O   14   -0.79264      1.99974     6.78320    0.00971     8.79264
      C   15   -0.23757      1.99900     4.22267    0.01590     6.23757
      H   16    0.17379      0.00000     0.82272    0.00349     0.82621
      C   17    0.31586      1.99878     3.66286    0.02250     5.68414
      O   18   -0.66389      1.99965     6.64788    0.01637     8.66389
      O   19   -0.77313      1.99976     6.76453    0.00884     8.77313
      H   20    0.42105      0.00000     0.57195    0.00700     0.57895
 =======================================================================
   * Total *   -1.00000     23.99050    63.69917    0.31034    88.00000

 ******   17 imaginary frequencies (negative Signs) ******

                      1                      2                      3
                      A                      A                      A
 Frequencies --  -2118.8832             -2070.0971             -1899.5284
 Red. masses --      1.0482                 1.0683                 1.1281
 Frc consts  --      2.7728                 2.6973                 2.3983
 IR Inten    --     42.1516               120.1394               205.9410

                      4                      5                      6
                      A                      A                      A
 Frequencies --  -1600.3125             -1577.3707             -1445.5538
 Red. masses --      1.0332                 1.0844                 1.0733
 Frc consts  --      1.5591                 1.5896                 1.3215
 IR Inten    --      0.6082               198.5322                59.8110

                      7                      8                      9
                      A                      A                      A
 Frequencies --  -1388.0985             -1281.0737             -1235.6553
 Red. masses --      1.0977                 1.0422                 1.0357
 Frc consts  --      1.2462                 1.0077                 0.9317
 IR Inten    --      2.6626                 0.3029                 0.0981

                     10                     11                     12
                      A                      A                      A
 Frequencies --   -939.3361              -927.1285              -829.5131
 Red. masses --      1.0912                 1.0844                 1.1050
 Frc consts  --      0.5673                 0.5492                 0.4480
 IR Inten    --      3.9431                 6.9111                 2.3039

                     13                     14                     15
                      A                      A                      A
 Frequencies --   -749.1629              -589.3666              -365.0591
 Red. masses --      1.0403                 1.2534                 1.4393
 Frc consts  --      0.3440                 0.2565                 0.1130
 IR Inten    --      7.9919                20.4299                 1.2245

                     16                     17                     18
                      A                      A                      A
 Frequencies --   -201.3334               -14.8225               133.0973
 Red. masses --      2.7022                11.4019                 8.7692
 Frc consts  --      0.0645                 0.0015                 0.0915
 IR Inten    --      2.3946                 1.2950                 9.7021

                     19                     20                     21
                      A                      A                      A
 Frequencies --    179.0104               230.0438               321.9660
 Red. masses --      8.2060                 7.4094                 6.3673
 Frc consts  --      0.1549                 0.2310                 0.3889
 IR Inten    --      6.5627                 4.4595                 1.3801

                     22                     23                     24
                      A                      A                      A
 Frequencies --    414.9814               452.7655               524.7043
 Red. masses --      7.4673                 4.9984                 9.9347
 Frc consts  --      0.7577                 0.6037                 1.6115
 IR Inten    --      2.4689                 7.7418                 0.0008

                     25                     26                     27
                      A                      A                      A
 Frequencies --    551.0173               584.9106               642.8855
 Red. masses --      3.9763                 4.2699                 7.6792
 Frc consts  --      0.7113                 0.8607                 1.8700
 IR Inten    --      2.8011                 5.8429                16.5235

                     28                     29                     30
                      A                      A                      A
 Frequencies --    694.5229               702.9620               785.8715
 Red. masses --      4.4535                 7.6993                 3.4160
 Frc consts  --      1.2657                 2.2416                 1.2430
 IR Inten    --     21.3424                 1.0074                 3.3527

                     31                     32                     33
                      A                      A                      A
 Frequencies --    806.0963               817.6489               844.3996
 Red. masses --      5.8412                 9.1003                 3.8507
 Frc consts  --      2.2363                 3.5846                 1.6177
 IR Inten    --      5.1406                18.6663                 6.2025

                     34                     35                     36
                      A                      A                      A
 Frequencies --    911.8759               985.8394              1005.2214
 Red. masses --      5.6929                 6.7364                 6.4766
 Frc consts  --      2.7891                 3.8574                 3.8559
 IR Inten    --      9.8697                12.4507                12.2461

                     37                     38                     39
                      A                      A                      A
 Frequencies --   1101.6692              1166.7678              1329.8104
 Red. masses --      6.9700                 8.0386                 8.7718
 Frc consts  --      4.9841                 6.4476                 9.1395
 IR Inten    --     19.1331                13.5176                36.1500

                     40                     41                     42
                      A                      A                      A
 Frequencies --   1417.0424              1446.0273              1457.4061
 Red. masses --      9.1461                11.9847                 8.3213
 Frc consts  --     10.8206                14.7649                10.4137
 IR Inten    --      5.7019               307.7080                 5.2673

                     43                     44                     45
                      A                      A                      A
 Frequencies --   1515.4285              1677.0306              1706.8596
 Red. masses --     10.2874                11.0559                 9.9283
 Frc consts  --     13.9196                18.3201                17.0421
 IR Inten    --    164.3701                39.6893                 5.0194

                     46                     47                     48
                      A                      A                      A
 Frequencies --   1738.2909              4361.9873              5017.1974
 Red. masses --     12.6901                 1.0872                 1.0878
 Frc consts  --     22.5923                12.1875                16.1330
 IR Inten    --    388.1414                16.0517                 7.2907

                     49                     50                     51
                      A                      A                      A
 Frequencies --   5033.6425              5035.8945              5045.2631
 Red. masses --      1.0881                 1.0901                 1.0908
 Frc consts  --     16.2431                16.2878                16.3589
 IR Inten    --      0.8050                 1.7337                 1.5823

                     52                     53                     54
                      A                      A                      A
 Frequencies --   5853.4424              6116.3248              6308.9494
 Red. masses --      1.0636                 1.0818                 1.0668
 Frc consts  --     21.4704                23.8445                25.0183
 IR Inten    --      2.5104                 4.3064               102.1733

 - Thermochemistry -
 -------------------
 Temperature   298.150 Kelvin.  Pressure   1.00000 Atm.
 Atom     1 has atomic number  6 and mass  12.00000

 Molecular mass:   166.05042 amu.
 Principal axes and moments of inertia in atomic units:
                           1         2         3
     Eigenvalues --   808.354643542.569663654.07104
           X            0.99994  -0.00908   0.00606
           Y            0.00825   0.99198   0.12613
           Z           -0.00715  -0.12607   0.99200
 This molecule is an asymmetric top.
 Rotational symmetry number  1.
 Warning -- assumption of classical behavior for rotation
           may cause significant error
 Rotational temperatures (Kelvin)      0.10715     0.02445     0.02370
 Rotational constants (GHZ):           2.23261     0.50944     0.49390
   17 imaginary frequencies ignored.
 Zero-point vibrational energy     412226.3 (Joules/Mol)
                                   98.52445 (Kcal/Mol)
 Warning -- explicit consideration of   9 degrees of freedom as
           vibrations may cause significant error
 Vibrational temperatures:    191.50   257.56   330.98   463.24   597.07
          (Kelvin)            651.43   754.93   792.79   841.56   924.97
                              999.26  1011.41  1130.69  1159.79  1176.41
                             1214.90  1311.99  1418.40  1446.29  1585.06
                             1678.72  1913.30  2038.81  2080.51  2096.88
                             2180.36  2412.87  2455.79  2501.01  6275.93
                             7218.63  7242.29  7245.53  7259.01  8421.80
                             8800.03  9077.17

 Zero-point correction=                           0.157009 (Hartree/Particle)
 Thermal correction to Energy=                    0.164011
 Thermal correction to Enthalpy=                  0.164956
 Thermal correction to Gibbs Free Energy=         0.124093
 Sum of electronic and zero-point Energies=           -588.683747
 Sum of electronic and thermal Energies=              -588.676745
 Sum of electronic and thermal Enthalpies=            -588.675801
 Sum of electronic and thermal Free Energies=         -588.716663

                     E (Thermal)             CV                S
                      KCal/Mol        Cal/Mol-Kelvin    Cal/Mol-Kelvin
 Total                  102.919             26.833             86.003
 Electronic               0.000              0.000              0.000
 Translational            0.889              2.981             41.230
 Rotational               0.889              2.981             30.726
 Vibrational            101.141             20.872             14.047
 Vibration     1          0.613              1.920              2.901
 Vibration     2          0.629              1.868              2.339
 Vibration     3          0.652              1.795              1.879
 Vibration     4          0.707              1.631              1.300
 Vibration     5          0.778              1.438              0.909
 Vibration     6          0.811              1.355              0.787
 Vibration     7          0.880              1.195              0.599
 Vibration     8          0.906              1.137              0.542
 Vibration     9          0.942              1.064              0.476

 Normal termination of Gaussian 16 at Mon Mar  6 10:33:45 2023.
