 Gaussian 16, Revision C.01,
 Gaussian 16:  ES64L-G16RevC.01  3-Jul-2019

 ----------------------------------------------------------------------
 #p pop=(regular,nbo,savenbos) freq=noraman def2svp empiricaldispersion
 =gd3bj output=wfx pbe1pbe
 ----------------------------------------------------------------------

 ----------------------------------------
 FUSZUQ_Complex_2_Ligand_3_NN_Cu_oriented
 ----------------------------------------
 Symbolic Z-matrix:
 Charge =  0 Multiplicity = 1

                         Standard orientation:
 ---------------------------------------------------------------------
 Center     Atomic      Atomic             Coordinates (Angstroms)
 Number     Number       Type             X           Y           Z
 ---------------------------------------------------------------------
      1          7           0        1.444210    0.943065    0.631947
      2          7           0        1.192160   -0.388984    0.489851
      3          7           0       -1.393064    0.969246    0.545718
      4          7           0       -1.196886   -0.369900    0.491893
      5          6           0        2.104107   -1.065394   -0.194380
      6          1           0        2.044177   -1.978660   -0.360446
      7          6           0        2.582564    1.234873    0.018477
      8          1           0        2.919681    2.101510    0.001406
      9          6           0       -2.527296    1.268391   -0.065158
     10          1           0       -2.824860    2.145968   -0.144297
     11          6           0       -0.003076   -0.922266    1.121629
     12          1           0       -0.010425   -1.888529    1.041003
     13          1           0       -0.000627   -0.698181    2.065258
     14         15           0       -3.435618   -0.077243   -0.716685
     15          6           0       -2.157543   -1.065142   -0.124714
     16          1           0       -2.137213   -1.989968   -0.223555
     17         15           0        3.415070   -0.087351   -0.752006
 ---------------------------------------------------------------------

 SCF Done:  E(RPBE1PBE) =  -1094.44670585     A.U. after   15 cycles

 The electronic state is 1-A.
 Alpha  occ. eigenvalues --  -77.17886 -77.17846 -14.50466 -14.50458 -14.42485
 Alpha  occ. eigenvalues --  -14.42415 -10.33491 -10.27611 -10.27609 -10.25237
 Alpha  occ. eigenvalues --  -10.25206  -6.59694  -6.59653  -4.73678  -4.73642
 Alpha  occ. eigenvalues --   -4.73533  -4.73486  -4.73307  -4.73268  -1.10483
 Alpha  occ. eigenvalues --   -1.07566  -0.91482  -0.86428  -0.81877  -0.77108
 Alpha  occ. eigenvalues --   -0.74361  -0.64517  -0.63209  -0.61556  -0.61359
 Alpha  occ. eigenvalues --   -0.59384  -0.58196  -0.54174  -0.49798  -0.47731
 Alpha  occ. eigenvalues --   -0.45738  -0.45570  -0.40339  -0.40048  -0.35265
 Alpha  occ. eigenvalues --   -0.33740  -0.30431  -0.29689  -0.29041  -0.27122
 Alpha  occ. eigenvalues --   -0.26251  -0.25477
 Alpha virt. eigenvalues --   -0.02925  -0.01878   0.00137   0.01387   0.05391
 Alpha virt. eigenvalues --    0.06321   0.06401   0.10973   0.11679   0.14174
 Alpha virt. eigenvalues --    0.14556   0.15257   0.15441   0.16593   0.16816

 Mulliken charges:
               1
     1  N   -0.085966
     2  N   -0.234306
     3  N   -0.080640
     4  N   -0.241424
     5  C    0.033399
     6  H   -0.042939
     7  C   -0.004740
     8  H   -0.032200
     9  C   -0.008205
    10  H   -0.032270
    11  C    0.550666
    12  H   -0.018858
    13  H    0.010664
    14  P    0.098457
    15  C    0.033724
    16  H   -0.042398
    17  P    0.097036
 Sum of Mulliken charges =  -0.00000

 Dipole moment (field-independent basis, Debye):
    X=             -0.0411    Y=             -3.1509    Z=              1.2348  Tot=              3.3845
 Quadrupole moment (field-independent basis, Debye-Ang):
   XX=            -87.6365   YY=            -69.1115   ZZ=            -78.7359
   XY=              0.1801   XZ=              0.0063   YZ=             -4.3299

  Exact polarizability:     146.076       0.753     101.592      -0.177       1.603      76.701
 Approx polarizability:     211.149       1.948     193.981      -0.308       6.363     131.956

 Summary of Natural Population Analysis:

                                       Natural Population
                Natural  -----------------------------------------------
    Atom  No    Charge         Core      Valence    Rydberg      Total
 -----------------------------------------------------------------------
      N    1   -0.27361      1.99939     5.25011    0.02411     7.27361
      N    2   -0.20838      1.99909     5.19197    0.01732     7.20838
      N    3   -0.26985      1.99938     5.24599    0.02448     7.26985
      N    4   -0.20765      1.99910     5.19114    0.01740     7.20765
      C    5   -0.28357      1.99918     4.25798    0.02642     6.28357
      H    6    0.17351      0.00000     0.82461    0.00188     0.82649
      C    7   -0.25996      1.99926     4.23239    0.02831     6.25996
      H    8    0.16778      0.00000     0.83016    0.00206     0.83222
      C    9   -0.25689      1.99926     4.22905    0.02858     6.25689
      H   10    0.16723      0.00000     0.83069    0.00207     0.83277
      C   11    0.09701      1.99901     3.87897    0.02501     5.90299
      H   12    0.19365      0.00000     0.80374    0.00260     0.80635
      H   13    0.20542      0.00000     0.79136    0.00322     0.79458
      P   14    0.44000      9.99875     4.51814    0.04311    14.56000
      C   15   -0.29473      1.99918     4.26977    0.02577     6.29473
      H   16    0.17365      0.00000     0.82448    0.00186     0.82635
      P   17    0.43638      9.99875     4.52184    0.04304    14.56362
 =======================================================================
   * Total *   -0.00000     37.99036    55.69240    0.31724    94.00000

 ******   11 imaginary frequencies (negative Signs) ******

                      1                      2                      3
                      A                      A                      A
 Frequencies --  -1426.6619             -1417.3449             -1377.7530
 Red. masses --      1.0618                 1.0824                 1.0661
 Frc consts  --      1.2733                 1.2812                 1.1923
 IR Inten    --     15.1202                51.3638                 7.7161

                      4                      5                      6
                      A                      A                      A
 Frequencies --  -1368.5175             -1039.2316             -1011.5915
 Red. masses --      1.0881                 1.0476                 1.0680
 Frc consts  --      1.2007                 0.6666                 0.6439
 IR Inten    --     19.3515                 0.8776                 0.9361

                      7                      8                      9
                      A                      A                      A
 Frequencies --   -986.6877              -932.3057              -930.1993
 Red. masses --      1.0948                 1.0483                 1.0484
 Frc consts  --      0.6280                 0.5368                 0.5345
 IR Inten    --      5.6642                21.1006                 7.2678

                     10                     11                     12
                      A                      A                      A
 Frequencies --   -315.5350               -68.2071                50.0666
 Red. masses --      2.4286                 4.1897                13.9195
 Frc consts  --      0.1425                 0.0115                 0.0206
 IR Inten    --      4.8136                 3.2259                 0.3305

                     13                     14                     15
                      A                      A                      A
 Frequencies --    184.5222               217.9236               332.0167
 Red. masses --      6.8295                11.2129                11.0400
 Frc consts  --      0.1370                 0.3137                 0.7170
 IR Inten    --      2.5324                 0.4913                 1.3675

                     16                     17                     18
                      A                      A                      A
 Frequencies --    465.2067               501.7546               565.0674
 Red. masses --      4.7294                 9.0729                 3.6463
 Frc consts  --      0.6030                 1.3458                 0.6860
 IR Inten    --     15.8137                 1.0277                 9.5390

                     19                     20                     21
                      A                      A                      A
 Frequencies --    609.0141               612.8797               653.2882
 Red. masses --      7.3831                 6.6940                 1.9964
 Frc consts  --      1.6134                 1.4815                 0.5020
 IR Inten    --      2.9284                 3.9432                 0.0788

                     22                     23                     24
                      A                      A                      A
 Frequencies --    678.8728               739.1655               764.4738
 Red. masses --     10.5168                 8.0783                 7.6461
 Frc consts  --      2.8557                 2.6005                 2.6328
 IR Inten    --     12.7621                63.5626                 1.5621

                     25                     26                     27
                      A                      A                      A
 Frequencies --    780.3666               812.9429               900.4554
 Red. masses --      2.6666                 8.0949                 8.1934
 Frc consts  --      0.9568                 3.1520                 3.9142
 IR Inten    --     71.7764                12.3688                 8.4733

                     28                     29                     30
                      A                      A                      A
 Frequencies --    932.0669               987.5741              1004.0239
 Red. masses --      7.2845                 2.5490                 3.0640
 Frc consts  --      3.7286                 1.4647                 1.8198
 IR Inten    --     14.9617                 3.9297                 9.2522

                     31                     32                     33
                      A                      A                      A
 Frequencies --   1015.4495              1084.0661              1104.2441
 Red. masses --      2.3808                 8.5012                 9.1818
 Frc consts  --      1.4464                 5.8863                 6.5964
 IR Inten    --      5.8531                10.4565                 0.1418

                     34                     35                     36
                      A                      A                      A
 Frequencies --   1263.0212              1295.7294              1419.0863
 Red. masses --      7.2667                 7.2917                10.1902
 Frc consts  --      6.8298                 7.2129                12.0907
 IR Inten    --     51.7881                16.2920                 8.9018

                     37                     38                     39
                      A                      A                      A
 Frequencies --   1435.8200              1495.6220              1545.5850
 Red. masses --     10.2969                 9.1428                10.1146
 Frc consts  --     12.5071                12.0496                14.2359
 IR Inten    --     12.2239               108.5376                53.5440

                     40                     41                     42
                      A                      A                      A
 Frequencies --   4451.1490              4575.5207              5052.1796
 Red. masses --      1.0607                 1.1110                 1.0899
 Frc consts  --     12.3821                13.7042                16.3912
 IR Inten    --      1.0853                 1.2527                 5.4533

                     43                     44                     45
                      A                      A                      A
 Frequencies --   5052.9968              5056.1842              5056.8646
 Red. masses --      1.0899                 1.0903                 1.0903
 Frc consts  --     16.3957                16.4225                16.4263
 IR Inten    --      7.8161                 3.2680                 3.5826

 - Thermochemistry -
 -------------------
 Temperature   298.150 Kelvin.  Pressure   1.00000 Atm.
 Atom     1 has atomic number  7 and mass  14.00307

 Molecular mass:   184.00677 amu.
 Principal axes and moments of inertia in atomic units:
                           1         2         3
     Eigenvalues --   705.086294233.168004430.37305
           X            1.00000   0.00035   0.00022
           Y           -0.00034   0.99880  -0.04896
           Z           -0.00023   0.04896   0.99880
 This molecule is an asymmetric top.
 Rotational symmetry number  1.
 Warning -- assumption of classical behavior for rotation
           may cause significant error
 Rotational temperatures (Kelvin)      0.12284     0.02046     0.01955
 Rotational constants (GHZ):           2.55960     0.42633     0.40736
   11 imaginary frequencies ignored.
 Zero-point vibrational energy     315187.3 (Joules/Mol)
                                   75.33157 (Kcal/Mol)
 Warning -- explicit consideration of   9 degrees of freedom as
           vibrations may cause significant error
 Vibrational temperatures:     72.03   265.49   313.54   477.70   669.33
          (Kelvin)            721.91   813.01   876.24   881.80   939.94
                              976.75  1063.49  1099.91  1122.77  1169.64
                             1295.55  1341.04  1420.90  1444.57  1461.01
                             1559.73  1588.76  1817.21  1864.27  2041.75
                             2065.82  2151.87  2223.75  6404.21  6583.15
                             7268.96  7270.14  7274.72  7275.70

 Zero-point correction=                           0.120048 (Hartree/Particle)
 Thermal correction to Energy=                    0.127088
 Thermal correction to Enthalpy=                  0.128032
 Thermal correction to Gibbs Free Energy=         0.086220
 Sum of electronic and zero-point Energies=          -1094.326657
 Sum of electronic and thermal Energies=             -1094.319618
 Sum of electronic and thermal Enthalpies=           -1094.318674
 Sum of electronic and thermal Free Energies=        -1094.360486

                     E (Thermal)             CV                S
                      KCal/Mol        Cal/Mol-Kelvin    Cal/Mol-Kelvin
 Total                   79.749             26.797             88.002
 Electronic               0.000              0.000              0.000
 Translational            0.889              2.981             41.536
 Rotational               0.889              2.981             30.959
 Vibrational             77.971             20.835             15.507
 Vibration     1          0.595              1.978              4.815
 Vibration     2          0.631              1.861              2.282
 Vibration     3          0.646              1.814              1.976
 Vibration     4          0.714              1.612              1.250
 Vibration     5          0.823              1.327              0.751
 Vibration     6          0.857              1.246              0.654
 Vibration     7          0.921              1.107              0.514
 Vibration     8          0.968              1.013              0.434
 Vibration     9          0.972              1.005              0.428

 1\1\GINC-JST020\Freq\RPBE1PBE\def2SVP\C5H6N4P2\LAPLAZA\04-Mar-2023\0\\
 #p pop=(regular,nbo,savenbos) freq=noraman def2svp empiricaldispersion
 =gd3bj output=wfx pbe1pbe\\FUSZUQ_Complex_2_Ligand_3_NN_Cu_oriented\\0
 ,1\N,1.39455724,1.49122988,0.\N,2.62529745,1.28907827,0.54998923\N,1.4
 9124425,-1.34582756,0.\N,2.67193502,-1.09867474,0.61610002\C,3.5284741
 7,2.21732094,0.26716822\H,4.40358394,2.19059063,0.58132229\C,1.41826,2
 .60914059,-0.71208296\H,0.6676637,2.91218628,-1.17008519\C,1.56834811,
 -2.49884607,-0.64322888\H,0.85637624,-2.83120053,-1.14080916\C,2.80296

 Normal termination of Gaussian 16 at Sat Mar  4 11:31:42 2023.
