 Gaussian 16, Revision C.01,
 Gaussian 16:  ES64L-G16RevC.01  3-Jul-2019

 ----------------------------------------------------------------------
 #p pop=(regular,nbo,savenbos) freq=noraman def2svp empiricaldispersion
 =gd3bj output=wfx pbe1pbe
 ----------------------------------------------------------------------

 ----------------------------------------
 FUVWUO_Complex_5_Ligand_1_NN_Cu_oriented
 ----------------------------------------
 Symbolic Z-matrix:
 Charge =  0 Multiplicity = 1

                         Standard orientation:
 ---------------------------------------------------------------------
 Center     Atomic      Atomic             Coordinates (Angstroms)
 Number     Number       Type             X           Y           Z
 ---------------------------------------------------------------------
      1          7           0       -0.428831   -1.419610   -0.351896
      2          6           0        0.433890   -1.137076    0.786173
      3          6           0        1.382018    0.052597    0.463446
      4          6           0       -1.747366   -0.787952   -0.250529
      5          1           0       -0.642151   -2.416625   -0.322797
      6          1           0        1.037427   -2.015307    1.019855
      7          1           0       -0.171373   -0.890882    1.659641
      8          1           0        2.155173    0.121540    1.225064
      9          1           0       -2.344207   -1.296435    0.502951
     10          7           0        1.957764   -0.267010   -0.864474
     11          1           0        2.705778   -0.943875   -0.757531
     12          6           0        0.676098    1.399305    0.451471
     13          6           0       -0.583968    1.502673   -0.392141
     14          6           0       -1.748232    0.672308    0.115713
     15          1           0        0.382112    1.663817    1.461720
     16          1           0        1.354885    2.163833    0.067801
     17          1           0       -0.371621    1.176315   -1.411991
     18          1           0       -0.926583    2.534684   -0.421250
     19          1           0       -2.685788    1.072061   -0.263805
     20          1           0        2.343537    0.576759   -1.278258
     21          1           0       -1.763828    0.713912    1.203992
     22          1           0       -2.250538   -0.864590   -1.215606
 ---------------------------------------------------------------------

 SCF Done:  E(RPBE1PBE) =  -345.899953343     A.U. after   12 cycles

 The electronic state is 1-A.
 Alpha  occ. eigenvalues --  -14.35537 -14.34947 -10.24642 -10.24049 -10.23475
 Alpha  occ. eigenvalues --  -10.21923 -10.21372 -10.21296  -0.92046  -0.87554
 Alpha  occ. eigenvalues --   -0.80332  -0.75578  -0.68152  -0.66181  -0.56084
 Alpha  occ. eigenvalues --   -0.55475  -0.51939  -0.49318  -0.47920  -0.46269
 Alpha  occ. eigenvalues --   -0.44076  -0.42698  -0.41242  -0.39898  -0.37293
 Alpha  occ. eigenvalues --   -0.35086  -0.34468  -0.32867  -0.32090  -0.31695
 Alpha  occ. eigenvalues --   -0.23196  -0.21089
 Alpha virt. eigenvalues --    0.05463   0.08440   0.09536   0.09970   0.11634
 Alpha virt. eigenvalues --    0.12411   0.13962   0.14904   0.15478   0.16004
 Alpha virt. eigenvalues --    0.17261   0.18558   0.19553   0.20568   0.22543

 Mulliken charges:
               1
     1  N   -0.264792
     2  C    0.072119
     3  C   -0.032996
     4  C    0.080790
     5  H    0.109421
     6  H    0.018595
     7  H    0.001683
     8  H    0.011107
     9  H    0.004424
    10  N   -0.218187
    11  H    0.095019
    12  C   -0.032152
    13  C   -0.025370
    14  C   -0.095728
    15  H    0.022187
    16  H    0.023891
    17  H    0.040861
    18  H    0.023520
    19  H    0.032599
    20  H    0.092826
    21  H    0.015669
    22  H    0.024512
 Sum of Mulliken charges =  -0.00000

 Dipole moment (field-independent basis, Debye):
    X=              0.4805    Y=             -0.0303    Z=              1.2182  Tot=              1.3099
 Quadrupole moment (field-independent basis, Debye-Ang):
   XX=            -46.2706   YY=            -48.0772   ZZ=            -53.6079
   XY=              0.4785   XZ=              0.1928   YZ=             -2.2423

  Exact polarizability:      82.013      -0.452      77.092       0.725      -1.293      68.198
 Approx polarizability:     101.395      -1.478     100.266      -0.242      -0.661      99.345

 Summary of Natural Population Analysis:

                                       Natural Population
                Natural  -----------------------------------------------
    Atom  No    Charge         Core      Valence    Rydberg      Total
 -----------------------------------------------------------------------
      N    1   -0.70895      1.99939     5.69392    0.01565     7.70895
      C    2   -0.23509      1.99915     4.21546    0.02049     6.23509
      C    3   -0.03532      1.99903     4.01726    0.01904     6.03532
      C    4   -0.20879      1.99915     4.19331    0.01633     6.20879
      H    5    0.36472      0.00000     0.62940    0.00588     0.63528
      H    6    0.21674      0.00000     0.78023    0.00303     0.78326
      H    7    0.18626      0.00000     0.80891    0.00483     0.81374
      H    8    0.20106      0.00000     0.79481    0.00413     0.79894
      H    9    0.18303      0.00000     0.81248    0.00449     0.81697
      N   10   -0.88175      1.99947     5.86631    0.01598     7.88175
      H   11    0.35759      0.00000     0.63707    0.00534     0.64241
      C   12   -0.44980      1.99907     4.43616    0.01456     6.44980
      C   13   -0.44646      1.99914     4.43117    0.01616     6.44646
      C   14   -0.45409      1.99913     4.44171    0.01325     6.45409
      H   15    0.22156      0.00000     0.77485    0.00359     0.77844
      H   16    0.22381      0.00000     0.77213    0.00405     0.77619
      H   17    0.23344      0.00000     0.76206    0.00450     0.76656
      H   18    0.22513      0.00000     0.77150    0.00337     0.77487
      H   19    0.23275      0.00000     0.76405    0.00320     0.76725
      H   20    0.35481      0.00000     0.63979    0.00540     0.64519
      H   21    0.20816      0.00000     0.78822    0.00362     0.79184
      H   22    0.21119      0.00000     0.78537    0.00343     0.78881
 =======================================================================
   * Total *    0.00000     15.99353    47.81615    0.19032    64.00000

 ******    3 imaginary frequencies (negative Signs) ******

                      1                      2                      3
                      A                      A                      A
 Frequencies --   -221.9366              -184.8669               -15.7664
 Red. masses --      1.2089                 1.5489                 2.2870
 Frc consts  --      0.0351                 0.0312                 0.0003
 IR Inten    --     21.2103                11.0119                 3.3060

                      4                      5                      6
                      A                      A                      A
 Frequencies --    178.9652               272.5739               300.7437
 Red. masses --      1.8367                 2.3553                 2.6391
 Frc consts  --      0.0347                 0.1031                 0.1406
 IR Inten    --      0.1695                 4.3115                 0.4139

                      7                      8                      9
                      A                      A                      A
 Frequencies --    334.9336               368.7994               446.6742
 Red. masses --      3.1106                 1.5356                 2.5831
 Frc consts  --      0.2056                 0.1231                 0.3037
 IR Inten    --      7.0878                 2.5807                 3.4250

                     10                     11                     12
                      A                      A                      A
 Frequencies --    511.0803               628.3957               727.4345
 Red. masses --      2.1641                 1.8937                 1.5009
 Frc consts  --      0.3330                 0.4406                 0.4679
 IR Inten    --     14.5072                19.2248                24.4234

                     13                     14                     15
                      A                      A                      A
 Frequencies --    729.7831               803.5739               840.8206
 Red. masses --      1.7502                 2.1300                 2.2122
 Frc consts  --      0.5492                 0.8103                 0.9215
 IR Inten    --     87.3218                44.2932                 1.0351

                     16                     17                     18
                      A                      A                      A
 Frequencies --    860.3802               885.1407               929.0522
 Red. masses --      1.6989                 2.4207                 1.9391
 Frc consts  --      0.7410                 1.1174                 0.9861
 IR Inten    --      6.7831                 2.4929                19.5674

                     19                     20                     21
                      A                      A                      A
 Frequencies --    944.3083               978.7454              1007.7469
 Red. masses --      2.0017                 2.4003                 1.5613
 Frc consts  --      1.0517                 1.3547                 0.9342
 IR Inten    --      7.1295                 3.6272                 5.4523

                     22                     23                     24
                      A                      A                      A
 Frequencies --   1049.2186              1080.8646              1108.0677
 Red. masses --      1.4202                 1.6828                 1.8015
 Frc consts  --      0.9211                 1.1583                 1.3032
 IR Inten    --      0.7543                 0.2856                 9.0061

                     25                     26                     27
                      A                      A                      A
 Frequencies --   1139.0744              1167.1916              1204.2546
 Red. masses --      1.5200                 1.2621                 1.2657
 Frc consts  --      1.1620                 1.0131                 1.0815
 IR Inten    --      4.2497                 1.9458                 2.6407

                     28                     29                     30
                      A                      A                      A
 Frequencies --   1216.4403              1243.2990              1252.5272
 Red. masses --      1.6859                 1.2414                 1.5008
 Frc consts  --      1.4698                 1.1307                 1.3872
 IR Inten    --      8.5754                 2.2104                 3.5297

                     31                     32                     33
                      A                      A                      A
 Frequencies --   1274.8330              1295.5442              1312.8846
 Red. masses --      1.4444                 1.3049                 1.2370
 Frc consts  --      1.3830                 1.2904                 1.2562
 IR Inten    --      1.6092                 4.5379                 5.9152

                     34                     35                     36
                      A                      A                      A
 Frequencies --   1328.7757              1337.8932              1362.9046
 Red. masses --      1.4805                 1.3942                 1.5342
 Frc consts  --      1.5401                 1.4704                 1.6791
 IR Inten    --     28.1721                 5.8036                 1.0332

                     37                     38                     39
                      A                      A                      A
 Frequencies --   1384.9589              1393.2486              1395.6490
 Red. masses --      1.6299                 1.7549                 1.8078
 Frc consts  --      1.8420                 2.0071                 2.0747
 IR Inten    --      1.7312                 5.6510                 0.4782

                     40                     41                     42
                      A                      A                      A
 Frequencies --   1418.6840              1428.2359              1430.8270
 Red. masses --      1.1513                 1.1323                 1.1275
 Frc consts  --      1.3653                 1.3609                 1.3600
 IR Inten    --      7.8833                 0.9866                13.8421

                     43                     44                     45
                      A                      A                      A
 Frequencies --   1442.1612              1460.8213              1496.2001
 Red. masses --      1.0709                 1.1029                 1.3299
 Frc consts  --      1.3123                 1.3867                 1.7540
 IR Inten    --      7.0213                 7.4368                 2.7201

                     46                     47                     48
                      A                      A                      A
 Frequencies --   1605.3517              3138.1904              3146.1362
 Red. masses --      1.0955                 1.0599                 1.0575
 Frc consts  --      1.6635                 6.1498                 6.1673
 IR Inten    --     31.4143                42.4223                67.5484

                     49                     50                     51
                      A                      A                      A
 Frequencies --   3158.8262              3167.3099              3168.9258
 Red. masses --      1.0650                 1.0653                 1.0612
 Frc consts  --      6.2610                 6.2967                 6.2789
 IR Inten    --     13.3611                20.6916                40.0289

                     52                     53                     54
                      A                      A                      A
 Frequencies --   3192.4597              3212.1145              3218.8678
 Red. masses --      1.0864                 1.1079                 1.1075
 Frc consts  --      6.5239                 6.7347                 6.7608
 IR Inten    --     77.6322                46.1103                30.5904

                     55                     56                     57
                      A                      A                      A
 Frequencies --   3241.6387              3248.9545              3264.5356
 Red. masses --      1.1053                 1.1062                 1.1011
 Frc consts  --      6.8430                 6.8797                 6.9137
 IR Inten    --     19.3077                31.4110                33.2466

                     58                     59                     60
                      A                      A                      A
 Frequencies --   3531.7663              3558.0407              3665.9491
 Red. masses --      1.0747                 1.0497                 1.0949
 Frc consts  --      7.8983                 7.8297                 8.6693
 IR Inten    --      1.1479                 0.3998                 1.6731

 - Thermochemistry -
 -------------------
 Temperature   298.150 Kelvin.  Pressure   1.00000 Atm.
 Atom     1 has atomic number  7 and mass  14.00307

 Molecular mass:   114.11570 amu.
 Principal axes and moments of inertia in atomic units:
                           1         2         3
     Eigenvalues --   651.37134 893.184671240.05266
           X            0.99999   0.00425   0.00161
           Y           -0.00422   0.99983  -0.01821
           Z           -0.00169   0.01821   0.99983
 This molecule is an asymmetric top.
 Rotational symmetry number  1.
 Warning -- assumption of classical behavior for rotation
           may cause significant error
 Rotational temperatures (Kelvin)      0.13297     0.09697     0.06985
 Rotational constants (GHZ):           2.77068     2.02057     1.45537
    3 imaginary frequencies ignored.
 Zero-point vibrational energy     541267.0 (Joules/Mol)
                                  129.36592 (Kcal/Mol)
 Warning -- explicit consideration of   7 degrees of freedom as
           vibrations may cause significant error
 Vibrational temperatures:    257.49   392.17   432.70   481.89   530.62
          (Kelvin)            642.66   735.33   904.12  1046.62  1050.00
                             1156.16  1209.75  1237.90  1273.52  1336.70
                             1358.65  1408.20  1449.92  1509.59  1555.12
                             1594.26  1638.87  1679.33  1732.65  1750.19
                             1788.83  1802.11  1834.20  1864.00  1888.95
                             1911.81  1924.93  1960.92  1992.65  2004.57
                             2008.03  2041.17  2054.91  2058.64  2074.95
                             2101.80  2152.70  2309.74  4515.16  4526.59
                             4544.85  4557.05  4559.38  4593.24  4621.52
                             4631.23  4664.00  4674.52  4696.94  5081.42
                             5119.23  5274.48

 Zero-point correction=                           0.206158 (Hartree/Particle)
 Thermal correction to Energy=                    0.212752
 Thermal correction to Enthalpy=                  0.213696
 Thermal correction to Gibbs Free Energy=         0.175635
 Sum of electronic and zero-point Energies=           -345.693796
 Sum of electronic and thermal Energies=              -345.687202
 Sum of electronic and thermal Enthalpies=            -345.686257
 Sum of electronic and thermal Free Energies=         -345.724318

                     E (Thermal)             CV                S
                      KCal/Mol        Cal/Mol-Kelvin    Cal/Mol-Kelvin
 Total                  133.504             27.347             80.105
 Electronic               0.000              0.000              0.000
 Translational            0.889              2.981             40.112
 Rotational               0.889              2.981             28.069
 Vibrational            131.726             21.386             11.924
 Vibration     1          0.629              1.868              2.339
 Vibration     2          0.676              1.724              1.580
 Vibration     3          0.693              1.672              1.413
 Vibration     4          0.716              1.606              1.236
 Vibration     5          0.741              1.536              1.085
 Vibration     6          0.806              1.368              0.806
 Vibration     7          0.866              1.225              0.631

 Normal termination of Gaussian 16 at Sat Mar  4 11:36:07 2023.
