 Gaussian 16, Revision C.01,
 Gaussian 16:  ES64L-G16RevC.01  3-Jul-2019

 ----------------------------------------------------------------------
 #p pop=(regular,nbo,savenbos) freq=noraman def2svp empiricaldispersion
 =gd3bj output=wfx pbe1pbe
 ----------------------------------------------------------------------

 ----------------------------------------
 GIFBOM_Complex_0_Ligand_1_ON_Cu_oriented
 ----------------------------------------
 Symbolic Z-matrix:
 Charge = -1 Multiplicity = 1

                         Standard orientation:
 ---------------------------------------------------------------------
 Center     Atomic      Atomic             Coordinates (Angstroms)
 Number     Number       Type             X           Y           Z
 ---------------------------------------------------------------------
      1          8           0        0.095407    1.726626    1.274593
      2          8           0       -1.217056    2.027363   -0.485207
      3          7           0        1.444698   -0.238308    0.148658
      4          6           0       -0.402100    1.380196    0.138409
      5          6           0        0.091253    0.036371   -0.429187
      6          6           0       -0.943555   -1.077176   -0.184883
      7          6           0       -2.203585   -0.827751   -1.035786
      8          6           0       -1.314476   -1.259251    1.280450
      9          6           0        1.874573   -1.647191    0.062540
     10          6           0        2.434940    0.585855   -0.590246
     11          1           0        0.191079    0.073156   -1.506502
     12          1           0       -0.810354   -1.753807   -0.300359
     13          1           0       -1.919431   -0.691792   -2.072579
     14          1           0       -2.704413    0.060255   -0.683921
     15          1           0       -0.416435   -1.423363    1.871719
     16          1           0       -1.817468   -0.364973    1.630361
     17          1           0        1.169771   -2.281031    0.597301
     18          1           0        2.147288    1.621954   -0.537160
     19          1           0       -2.862439   -1.666405   -0.947321
     20          1           0       -1.982074   -2.111713    1.379833
     21          1           0        2.852959   -1.758326    0.501317
     22          1           0        1.910367   -1.947816   -0.972829
     23          1           0        2.468282    0.272146   -1.618743
     24          1           0        3.410874    0.461636   -0.144597
 ---------------------------------------------------------------------

 SCF Done:  E(RPBE1PBE) =  -479.253297986     A.U. after   14 cycles

 The electronic state is 1-A.
 Alpha  occ. eigenvalues --  -18.93516 -18.91608 -14.23031 -10.11680 -10.10405
 Alpha  occ. eigenvalues --  -10.09641 -10.08634 -10.07549 -10.07462 -10.06164
 Alpha  occ. eigenvalues --   -0.83313  -0.77993  -0.71798  -0.70057  -0.58492
 Alpha  occ. eigenvalues --   -0.56299  -0.55802  -0.49050  -0.46475  -0.36534
 Alpha  occ. eigenvalues --   -0.34939  -0.34271  -0.31823  -0.29814  -0.28673
 Alpha  occ. eigenvalues --   -0.27520  -0.26879  -0.25782  -0.24680  -0.23783
 Alpha  occ. eigenvalues --   -0.22557  -0.21751  -0.20216  -0.19951  -0.18623
 Alpha  occ. eigenvalues --   -0.16555  -0.07462  -0.04001  -0.03815  -0.01345
 Alpha virt. eigenvalues --    0.18820   0.21127   0.23671   0.24093   0.25170
 Alpha virt. eigenvalues --    0.26400   0.26573   0.26988   0.28430   0.29358
 Alpha virt. eigenvalues --    0.29739   0.30303   0.31387   0.32830   0.34022

 Mulliken charges:
               1
     1  O   -0.472305
     2  O   -0.379198
     3  N   -0.396745
     4  C    0.125589
     5  C    0.067190
     6  C    0.155821
     7  C    0.012843
     8  C   -0.020893
     9  C    0.116758
    10  C    0.117074
    11  H   -0.040022
    12  H   -0.332126
    13  H    0.001354
    14  H    0.042204
    15  H    0.026047
    16  H    0.043928
    17  H    0.022549
    18  H    0.047600
    19  H   -0.028801
    20  H   -0.022698
    21  H    0.000728
    22  H   -0.040021
    23  H   -0.041074
    24  H   -0.005804
 Sum of Mulliken charges =  -1.00000

 Dipole moment (field-independent basis, Debye):
    X=              2.1922    Y=             -7.3675    Z=             -2.3825  Tot=              8.0474
 Quadrupole moment (field-independent basis, Debye-Ang):
   XX=            -71.8034   YY=            -82.7107   ZZ=            -73.1501
   XY=              5.2814   XZ=             -2.9590   YZ=             -4.1285

  Exact polarizability:      97.355       2.037      85.007       2.857      -1.995      83.495
 Approx polarizability:     121.001       0.004     113.356      10.267      -1.023     126.414

 Summary of Natural Population Analysis:

                                       Natural Population
                Natural  -----------------------------------------------
    Atom  No    Charge         Core      Valence    Rydberg      Total
 -----------------------------------------------------------------------
      O    1   -0.79730      1.99977     6.78907    0.00845     8.79730
      O    2   -0.76868      1.99971     6.75825    0.01072     8.76868
      N    3   -0.52855      1.99935     5.51405    0.01515     7.52855
      C    4    0.77600      1.99936     3.14812    0.07653     5.22400
      C    5   -0.15131      1.99904     4.12619    0.02608     6.15131
      C    6   -0.02437      1.99690     4.00858    0.01889     6.02437
      C    7   -0.62354      1.99929     4.61392    0.01033     6.62354
      C    8   -0.62478      1.99927     4.61420    0.01130     6.62478
      C    9   -0.40915      1.99929     4.39806    0.01180     6.40915
      C   10   -0.40703      1.99928     4.39457    0.01318     6.40703
      H   11    0.18197      0.00000     0.80996    0.00806     0.81803
      H   12    0.00223      0.00000     0.98664    0.01113     0.99777
      H   13    0.20371      0.00000     0.79311    0.00318     0.79629
      H   14    0.23474      0.00000     0.75947    0.00580     0.76526
      H   15    0.21609      0.00000     0.78029    0.00363     0.78391
      H   16    0.22877      0.00000     0.76792    0.00330     0.77123
      H   17    0.20140      0.00000     0.79588    0.00272     0.79860
      H   18    0.23114      0.00000     0.76559    0.00328     0.76886
      H   19    0.18265      0.00000     0.81417    0.00318     0.81735
      H   20    0.18271      0.00000     0.81424    0.00304     0.81729
      H   21    0.19510      0.00000     0.80213    0.00277     0.80490
      H   22    0.15562      0.00000     0.83652    0.00786     0.84438
      H   23    0.15321      0.00000     0.83971    0.00709     0.84679
      H   24    0.18938      0.00000     0.80807    0.00255     0.81062
 =======================================================================
   * Total *   -1.00000     19.99126    59.73871    0.27002    80.00000

 ******    8 imaginary frequencies (negative Signs) ******

                      1                      2                      3
                      A                      A                      A
 Frequencies --  -4113.0573             -4087.0939              -413.8301
 Red. masses --      1.0853                 1.0933                 1.0172
 Frc consts  --     10.8179                10.7602                 0.1026
 IR Inten    --      2.8056                 4.1646                 1.1139

                      4                      5                      6
                      A                      A                      A
 Frequencies --   -409.6055              -359.9191              -300.0931
 Red. masses --      1.0223                 1.0396                 1.0201
 Frc consts  --      0.1011                 0.0793                 0.0541
 IR Inten    --      0.3404                 0.4066                 0.2220

                      7                      8                      9
                      A                      A                      A
 Frequencies --   -131.9128               -72.1078               147.3511
 Red. masses --     10.4479                 2.7117                 2.5639
 Frc consts  --      0.1071                 0.0083                 0.0328
 IR Inten    --      0.2656                 1.1904                 1.9464

                     10                     11                     12
                      A                      A                      A
 Frequencies --    169.4922               181.9625               205.0139
 Red. masses --      3.0132                 3.1495                 3.1276
 Frc consts  --      0.0510                 0.0614                 0.0775
 IR Inten    --      5.3566                 4.0939                10.0147

                     13                     14                     15
                      A                      A                      A
 Frequencies --    273.3966               316.7113               356.7750
 Red. masses --      2.3257                 2.8090                 2.5915
 Frc consts  --      0.1024                 0.1660                 0.1944
 IR Inten    --      0.1753                 2.4285                 3.1667

                     16                     17                     18
                      A                      A                      A
 Frequencies --    362.7428               413.8862               448.8413
 Red. masses --      3.2702                 3.1265                 2.6450
 Frc consts  --      0.2535                 0.3156                 0.3140
 IR Inten    --      0.7804                 1.7232                 0.3939

                     19                     20                     21
                      A                      A                      A
 Frequencies --    514.1748               702.5210               797.4456
 Red. masses --      3.1083                 5.0437                 4.5515
 Frc consts  --      0.4842                 1.4666                 1.7053
 IR Inten    --      2.7672                10.9417                33.7728

                     22                     23                     24
                      A                      A                      A
 Frequencies --    844.6030               860.1961               897.8768
 Red. masses --      2.7384                 2.9628                 1.7018
 Frc consts  --      1.1509                 1.2917                 0.8083
 IR Inten    --     10.5119                12.3357                 9.1910

                     25                     26                     27
                      A                      A                      A
 Frequencies --    931.2220               942.7123               947.0154
 Red. masses --      3.1114                 1.4295                 1.7860
 Frc consts  --      1.5897                 0.7485                 0.9437
 IR Inten    --     21.4201                 3.1864                 4.4619

                     28                     29                     30
                      A                      A                      A
 Frequencies --    962.9471               995.9257              1023.2722
 Red. masses --      1.6830                 1.4643                 2.0758
 Frc consts  --      0.9195                 0.8557                 1.2806
 IR Inten    --      8.1174                12.9407                22.0632

                     31                     32                     33
                      A                      A                      A
 Frequencies --   1094.3960              1101.2433              1135.6136
 Red. masses --      1.6999                 1.8205                 2.8418
 Frc consts  --      1.1996                 1.3008                 2.1593
 IR Inten    --     21.3509                 3.3464                12.1610

                     34                     35                     36
                      A                      A                      A
 Frequencies --   1184.8434              1221.4180              1231.7655
 Red. masses --      2.5582                 2.2444                 2.5791
 Frc consts  --      2.1160                 1.9728                 2.3056
 IR Inten    --      9.8236                18.8993                 6.7934

                     37                     38                     39
                      A                      A                      A
 Frequencies --   1241.7017              1293.9158              1295.2894
 Red. masses --      3.5616                 1.2583                 1.3260
 Frc consts  --      3.2354                 1.2412                 1.3108
 IR Inten    --      4.3595                13.6774                 3.7155

                     40                     41                     42
                      A                      A                      A
 Frequencies --   1313.6809              1339.5880              1351.0624
 Red. masses --      1.1748                 1.3586                 1.2248
 Frc consts  --      1.1945                 1.4364                 1.3173
 IR Inten    --      1.3891                17.2471                12.1195

                     43                     44                     45
                      A                      A                      A
 Frequencies --   1370.1931              1401.7333              1403.8439
 Red. masses --      6.7854                 1.0562                 1.0653
 Frc consts  --      7.5057                 1.2227                 1.2369
 IR Inten    --    182.1167                 2.2258                 3.3957

                     46                     47                     48
                      A                      A                      A
 Frequencies --   1420.3500              1422.8898              1427.6911
 Red. masses --      1.0712                 1.0555                 1.0499
 Frc consts  --      1.2733                 1.2591                 1.2609
 IR Inten    --      9.4939                 1.7700                 3.2244

                     49                     50                     51
                      A                      A                      A
 Frequencies --   1433.4335              1438.0565              1447.3428
 Red. masses --      1.0550                 1.0498                 1.0592
 Frc consts  --      1.2772                 1.2791                 1.3073
 IR Inten    --      5.1709                15.4874                16.8302

                     52                     53                     54
                      A                      A                      A
 Frequencies --   1867.4176              3163.2534              3182.4059
 Red. masses --     12.2268                 1.0341                 1.0339
 Frc consts  --     25.1215                 6.0962                 6.1695
 IR Inten    --    402.9468                44.6072                79.8833

                     55                     56                     57
                      A                      A                      A
 Frequencies --   3220.0320              3229.2811              3231.5540
 Red. masses --      1.0781                 1.0377                 1.0398
 Frc consts  --      6.5859                 6.3755                 6.3976
 IR Inten    --     35.8539                57.5620               102.3306

                     58                     59                     60
                      A                      A                      A
 Frequencies --   3269.1672              3282.0119              3305.3085
 Red. masses --      1.1047                 1.1029                 1.1046
 Frc consts  --      6.9564                 6.9998                 7.1103
 IR Inten    --     39.2636                81.5821                 9.6762

                     61                     62                     63
                      A                      A                      A
 Frequencies --   3332.8064              3337.9503              3349.4252
 Red. masses --      1.1060                 1.1040                 1.1000
 Frc consts  --      7.2380                 7.2476                 7.2709
 IR Inten    --     80.6727                31.6351                19.8869

                     64                     65                     66
                      A                      A                      A
 Frequencies --   3380.9166              3412.0622              9474.6570
 Red. masses --      1.1053                 1.1020                 1.0865
 Frc consts  --      7.4441                 7.5592                57.4633
 IR Inten    --     10.0581                46.8808                 0.4307

 - Thermochemistry -
 -------------------
 Temperature   298.150 Kelvin.  Pressure   1.00000 Atm.
 Atom     1 has atomic number  8 and mass  15.99491

 Molecular mass:   144.10245 amu.
 Principal axes and moments of inertia in atomic units:
                           1         2         3
     Eigenvalues --  1185.429221471.987352013.25911
           X            0.99621   0.08558  -0.01537
           Y           -0.08599   0.99588  -0.02865
           Z            0.01286   0.02986   0.99947
 This molecule is an asymmetric top.
 Rotational symmetry number  1.
 Warning -- assumption of classical behavior for rotation
           may cause significant error
 Rotational temperatures (Kelvin)      0.07307     0.05884     0.04302
 Rotational constants (GHZ):           1.52244     1.22606     0.89643
    8 imaginary frequencies ignored.
 Zero-point vibrational energy     567654.3 (Joules/Mol)
                                  135.67263 (Kcal/Mol)
 Warning -- explicit consideration of  11 degrees of freedom as
           vibrations may cause significant error
 Vibrational temperatures:    212.01   243.86   261.80   294.97   393.36
          (Kelvin)            455.68   513.32   521.91   595.49   645.78
                              739.78  1010.77  1147.35  1215.20  1237.63
                             1291.84  1339.82  1356.35  1362.54  1385.47
                             1432.91  1472.26  1574.59  1584.44  1633.89
                             1704.73  1757.35  1772.24  1786.53  1861.66
                             1863.63  1890.09  1927.37  1943.88  1971.40
                             2016.78  2019.82  2043.57  2047.22  2054.13
                             2062.39  2069.04  2082.40  2686.80  4551.22
                             4578.77  4632.91  4646.22  4649.49  4703.60
                             4722.08  4755.60  4795.17  4802.57  4819.08
                             4864.38  4909.20 13631.92

 Zero-point correction=                           0.216208 (Hartree/Particle)
 Thermal correction to Energy=                    0.224648
 Thermal correction to Enthalpy=                  0.225592
 Thermal correction to Gibbs Free Energy=         0.182961
 Sum of electronic and zero-point Energies=           -479.037090
 Sum of electronic and thermal Energies=              -479.028650
 Sum of electronic and thermal Enthalpies=            -479.027706
 Sum of electronic and thermal Free Energies=         -479.070337

                     E (Thermal)             CV                S
                      KCal/Mol        Cal/Mol-Kelvin    Cal/Mol-Kelvin
 Total                  140.969             32.755             89.725
 Electronic               0.000              0.000              0.000
 Translational            0.889              2.981             40.807
 Rotational               0.889              2.981             29.642
 Vibrational            139.191             26.794             19.276
 Vibration     1          0.617              1.906              2.706
 Vibration     2          0.625              1.880              2.441
 Vibration     3          0.630              1.864              2.308
 Vibration     4          0.640              1.833              2.088
 Vibration     5          0.676              1.722              1.575
 Vibration     6          0.704              1.642              1.327
 Vibration     7          0.732              1.561              1.136
 Vibration     8          0.737              1.549              1.110
 Vibration     9          0.777              1.440              0.913
 Vibration    10          0.808              1.363              0.799
 Vibration    11          0.869              1.219              0.624

 Normal termination of Gaussian 16 at Mon Mar  6 10:37:48 2023.
