 Gaussian 16, Revision C.01,
 Gaussian 16:  ES64L-G16RevC.01  3-Jul-2019

 ----------------------------------------------------------------------
 #p pop=(regular,nbo,savenbos) freq=noraman def2svp empiricaldispersion
 =gd3bj output=wfx pbe1pbe
 ----------------------------------------------------------------------

 ----------------------------------------
 GIFQAP_Complex_0_Ligand_2_ON_Cu_oriented
 ----------------------------------------
 Symbolic Z-matrix:
 Charge = -1 Multiplicity = 1

                         Standard orientation:
 ---------------------------------------------------------------------
 Center     Atomic      Atomic             Coordinates (Angstroms)
 Number     Number       Type             X           Y           Z
 ---------------------------------------------------------------------
      1          8           0        0.395721    2.986546   -0.421044
      2          8           0       -0.566145    2.028479    1.325199
      3          7           0        0.488153   -0.331910    0.766213
      4          6           0        0.375822    0.622992   -0.358715
      5          1           0        1.239089    0.666888   -0.820913
      6          6           0       -0.705386    0.182279   -1.370019
      7          1           0       -0.798878    0.884709   -2.032649
      8          1           0       -0.380061   -0.606729   -1.830793
      9          6           0        0.061459    2.002807    0.221596
     10          6           0        1.779027   -0.225346    1.524678
     11          1           0        1.765728   -0.876992    2.243024
     12          1           0        1.823596    0.654501    1.929944
     13          6           0        3.024859   -0.438311    0.716350
     14          6           0        3.567425   -1.685484    0.528513
     15          1           0        3.152842   -2.417745    0.924024
     16          6           0        4.693155   -1.892215   -0.218183
     17          1           0        5.030459   -2.750767   -0.337667
     18          6           0        5.327637   -0.793965   -0.799715
     19          1           0        6.093579   -0.918647   -1.312866
     20          6           0        4.828135    0.456926   -0.619073
     21          1           0        5.256632    1.188515   -1.002531
     22          6           0        3.679445    0.644573    0.138597
     23          1           0        3.343312    1.502964    0.260431
     24          6           0       -2.076816   -0.128539   -0.825105
     25          6           0       -2.462556   -1.446079   -0.593973
     26          1           0       -1.854749   -2.131471   -0.754773
     27          6           0       -3.748626   -1.767302   -0.125531
     28          1           0       -3.982509   -2.651167    0.042440
     29          6           0       -4.663464   -0.743179    0.082852
     30          8           0       -5.930679   -0.976417    0.534630
     31          1           0       -6.042389   -1.783442    0.630685
     32          6           0       -4.302326    0.572423   -0.134906
     33          1           0       -4.912891    1.254831    0.025455
     34          6           0       -3.028311    0.875106   -0.593922
     35          1           0        0.362287   -1.183689    0.472664
     36          1           0       -2.801169    1.762642   -0.750906
 ---------------------------------------------------------------------

 SCF Done:  E(RPBE1PBE) =  -897.831649951     A.U. after   17 cycles

 The electronic state is 1-A.
 Alpha  occ. eigenvalues --  -19.12699 -18.93820 -18.92434 -14.22032 -10.18129
 Alpha  occ. eigenvalues --  -10.12504 -10.12237 -10.11943 -10.11723 -10.11446
 Alpha  occ. eigenvalues --  -10.11412 -10.11180 -10.11024 -10.10867 -10.10571
 Alpha  occ. eigenvalues --  -10.09989 -10.09937 -10.09741 -10.08224 -10.07958
 Alpha  occ. eigenvalues --   -1.01039  -0.83790  -0.79585  -0.77572  -0.76367
 Alpha  occ. eigenvalues --   -0.72912  -0.69402  -0.68202  -0.67611  -0.66700
 Alpha  occ. eigenvalues --   -0.62318  -0.58629  -0.55580  -0.54886  -0.52991
 Alpha  occ. eigenvalues --   -0.51757  -0.50105  -0.48018  -0.46131  -0.40541
 Alpha  occ. eigenvalues --   -0.40226  -0.39411  -0.38704  -0.36812  -0.35896
 Alpha  occ. eigenvalues --   -0.35626  -0.34640  -0.34168  -0.33989  -0.32595
 Alpha  occ. eigenvalues --   -0.32132  -0.31052  -0.28992  -0.28594  -0.27698
 Alpha  occ. eigenvalues --   -0.26681  -0.26346  -0.25463  -0.24802  -0.23999
 Alpha  occ. eigenvalues --   -0.22923  -0.22799  -0.19398  -0.18315  -0.17199
 Alpha  occ. eigenvalues --   -0.16006  -0.15245  -0.11972  -0.09094  -0.04649
 Alpha  occ. eigenvalues --   -0.04260  -0.02209
 Alpha virt. eigenvalues --    0.09517   0.10055   0.10734   0.13010   0.17522
 Alpha virt. eigenvalues --    0.18474   0.19451   0.21267   0.22575   0.23048
 Alpha virt. eigenvalues --    0.24182   0.24682   0.25577   0.25690   0.26338

 Mulliken charges:
               1
     1  O   -0.403249
     2  O   -0.446706
     3  N   -0.204875
     4  C    0.018946
     5  H   -0.064069
     6  C    0.252828
     7  H   -0.041027
     8  H   -0.066558
     9  C    0.089959
    10  C    0.417820
    11  H   -0.064088
    12  H   -0.040486
    13  C   -0.167967
    14  C    0.079101
    15  H   -0.134417
    16  C    0.093853
    17  H   -0.119458
    18  C    0.082703
    19  H   -0.115386
    20  C    0.095695
    21  H   -0.109585
    22  C    0.105867
    23  H   -0.095634
    24  C   -0.077009
    25  C    0.077231
    26  H   -0.132238
    27  C    0.022283
    28  H   -0.149958
    29  C    0.141770
    30  O   -0.141581
    31  H    0.078191
    32  C    0.052241
    33  H   -0.125526
    34  C    0.151912
    35  H    0.034532
    36  H   -0.095115
 Sum of Mulliken charges =  -1.00000

 Dipole moment (field-independent basis, Debye):
    X=              1.5385    Y=            -10.5619    Z=             -2.5205  Tot=             10.9669
 Quadrupole moment (field-independent basis, Debye-Ang):
   XX=           -138.7500   YY=           -138.3153   ZZ=           -125.7848
   XY=              6.3131   XZ=              0.8347   YZ=             -5.8096

  Exact polarizability:     226.563      -0.574     165.778     -28.447      -6.412     115.523
 Approx polarizability:     294.960       0.724     280.800     -59.225     -15.517     188.346

 Summary of Natural Population Analysis:

                                       Natural Population
                Natural  -----------------------------------------------
    Atom  No    Charge         Core      Valence    Rydberg      Total
 -----------------------------------------------------------------------
      O    1   -0.77782      1.99972     6.76759    0.01051     8.77782
      O    2   -0.78878      1.99976     6.77999    0.00902     8.78878
      N    3   -0.64807      1.99938     5.63005    0.01864     7.64807
      C    4   -0.09547      1.99889     4.07115    0.02543     6.09547
      H    5    0.16465      0.00000     0.82737    0.00798     0.83535
      C    6   -0.38555      1.99896     4.37031    0.01629     6.38555
      H    7    0.20759      0.00000     0.78583    0.00657     0.79241
      H    8    0.17841      0.00000     0.81679    0.00480     0.82159
      C    9    0.76640      1.99940     3.15693    0.07727     5.23360
      C   10   -0.16843      1.99894     4.14989    0.01960     6.16843
      H   11    0.17664      0.00000     0.82017    0.00319     0.82336
      H   12    0.19714      0.00000     0.79682    0.00604     0.80286
      C   13   -0.02908      1.99900     4.01423    0.01585     6.02908
      C   14   -0.18917      1.99896     4.17431    0.01589     6.18917
      H   15    0.16292      0.00000     0.83297    0.00411     0.83708
      C   16   -0.17737      1.99911     4.16380    0.01446     6.17737
      H   17    0.16042      0.00000     0.83644    0.00314     0.83958
      C   18   -0.19409      1.99911     4.18063    0.01435     6.19409
      H   19    0.15914      0.00000     0.83761    0.00325     0.84086
      C   20   -0.17106      1.99909     4.15769    0.01428     6.17106
      H   21    0.16545      0.00000     0.83137    0.00318     0.83455
      C   22   -0.15815      1.99898     4.14330    0.01587     6.15815
      H   23    0.18088      0.00000     0.81363    0.00549     0.81912
      C   24   -0.02098      1.99905     4.00134    0.02060     6.02098
      C   25   -0.16292      1.99899     4.14914    0.01479     6.16292
      H   26    0.16099      0.00000     0.83574    0.00327     0.83901
      C   27   -0.28455      1.99900     4.26966    0.01589     6.28455
      H   28    0.16259      0.00000     0.83405    0.00335     0.83741
      C   29    0.32339      1.99878     3.65570    0.02212     5.67661
      O   30   -0.66005      1.99965     6.64433    0.01607     8.66005
      H   31    0.42110      0.00000     0.57193    0.00697     0.57890
      C   32   -0.23484      1.99899     4.22009    0.01577     6.23484
      H   33    0.17676      0.00000     0.81979    0.00345     0.82324
      C   34   -0.11349      1.99900     4.09853    0.01596     6.11349
      H   35    0.31313      0.00000     0.67888    0.00799     0.68687
      H   36    0.18227      0.00000     0.81458    0.00315     0.81773
 =======================================================================
   * Total *   -1.00000     39.98276   103.55263    0.46461   144.00000

 ******   31 imaginary frequencies (negative Signs) ******

                      1                      2                      3
                      A                      A                      A
 Frequencies --  -2059.2873             -1566.7406             -1466.9691
 Red. masses --      1.0689                 1.0812                 1.0832
 Frc consts  --      2.6706                 1.5637                 1.3735
 IR Inten    --    111.0677               213.1951                74.1514

                      4                      5                      6
                      A                      A                      A
 Frequencies --  -1457.1426             -1410.3392             -1365.4985
 Red. masses --      1.0709                 1.0592                 1.0554
 Frc consts  --      1.3397                 1.2413                 1.1594
 IR Inten    --     65.5428                 3.7371                 0.6394

                      7                      8                      9
                      A                      A                      A
 Frequencies --  -1316.8206             -1312.8844             -1297.1398
 Red. masses --      1.0712                 1.0401                 1.0447
 Frc consts  --      1.0944                 1.0562                 1.0356
 IR Inten    --    114.8879                13.4538                12.3071

                     10                     11                     12
                      A                      A                      A
 Frequencies --  -1258.2696             -1245.4583             -1173.2294
 Red. masses --      1.0354                 1.0206                 1.0394
 Frc consts  --      0.9659                 0.9328                 0.8429
 IR Inten    --      0.4643                 0.7523                 0.3431

                     13                     14                     15
                      A                      A                      A
 Frequencies --  -1097.7337             -1067.6625              -948.3499
 Red. masses --      1.0265                 1.0363                 1.0814
 Frc consts  --      0.7288                 0.6960                 0.5730
 IR Inten    --      2.1798                 1.4863                 6.4400

                     16                     17                     18
                      A                      A                      A
 Frequencies --   -947.3760              -932.4202              -898.6650
 Red. masses --      1.0744                 1.0933                 1.1510
 Frc consts  --      0.5681                 0.5600                 0.5477
 IR Inten    --      0.6114                 3.9479                 0.5581

                     19                     20                     21
                      A                      A                      A
 Frequencies --   -844.7016              -814.0776              -752.9201
 Red. masses --      1.0834                 1.1043                 1.0647
 Frc consts  --      0.4554                 0.4312                 0.3556
 IR Inten    --      2.4229                 8.4411                10.7931

                     22                     23                     24
                      A                      A                      A
 Frequencies --   -749.5076              -696.9380              -476.4146
 Red. masses --      1.0939                 1.0440                 1.3613
 Frc consts  --      0.3621                 0.2988                 0.1820
 IR Inten    --      3.2518                14.5183                 0.5507

                     25                     26                     27
                      A                      A                      A
 Frequencies --   -432.8639              -399.5689              -358.7300
 Red. masses --      1.3418                 1.6345                 1.7231
 Frc consts  --      0.1481                 0.1537                 0.1306
 IR Inten    --      8.6801                 5.6742                 3.1805

                     28                     29                     30
                      A                      A                      A
 Frequencies --   -303.6514              -154.3901              -122.5159
 Red. masses --      1.9722                 7.4991                 4.0624
 Frc consts  --      0.1071                 0.1053                 0.0359
 IR Inten    --      0.5994                 2.1099                 1.9192

                     31                     32                     33
                      A                      A                      A
 Frequencies --    -82.8126               118.9528               163.1512
 Red. masses --      3.1157                 7.8069                 6.5445
 Frc consts  --      0.0126                 0.0651                 0.1026
 IR Inten    --      1.5839                 1.7371                21.4179

                     34                     35                     36
                      A                      A                      A
 Frequencies --    173.7337               191.9389               199.3480
 Red. masses --      8.5829                 8.2319                 7.2213
 Frc consts  --      0.1526                 0.1787                 0.1691
 IR Inten    --      2.9250                 1.3994                 1.1491

                     37                     38                     39
                      A                      A                      A
 Frequencies --    289.7594               357.2239               369.8579
 Red. masses --      4.0921                 3.2060                 3.9709
 Frc consts  --      0.2024                 0.2410                 0.3200
 IR Inten    --      2.9339                 1.0060                 3.0730

                     40                     41                     42
                      A                      A                      A
 Frequencies --    407.3818               441.9658               459.9518
 Red. masses --      2.9468                 3.7764                 2.9915
 Frc consts  --      0.2881                 0.4346                 0.3729
 IR Inten    --      3.0212                 2.5419                 1.5914

                     43                     44                     45
                      A                      A                      A
 Frequencies --    512.5585               532.2790               535.6336
 Red. masses --      3.3782                10.1143                 9.6819
 Frc consts  --      0.5229                 1.6884                 1.6366
 IR Inten    --      9.9174                 0.0471                 0.9466

                     46                     47                     48
                      A                      A                      A
 Frequencies --    544.2543               583.7867               620.2084
 Red. masses --      5.7350                 5.4346                 3.4145
 Frc consts  --      1.0009                 1.0913                 0.7738
 IR Inten    --     11.9063                 1.5715                16.2274

                     49                     50                     51
                      A                      A                      A
 Frequencies --    665.0744               683.2515               689.2276
 Red. masses --      4.9034                 5.3173                 3.4901
 Frc consts  --      1.2779                 1.4625                 0.9768
 IR Inten    --      3.4679                 0.7887                 0.5067

                     52                     53                     54
                      A                      A                      A
 Frequencies --    705.6442               723.1527               741.3266
 Red. masses --      5.4187                 4.1398                 6.1898
 Frc consts  --      1.5897                 1.2755                 2.0042
 IR Inten    --     12.1562                 4.3191                 3.4863

                     55                     56                     57
                      A                      A                      A
 Frequencies --    765.7655               784.4228               807.7094
 Red. masses --      3.6385                 4.7618                 4.0157
 Frc consts  --      1.2571                 1.7263                 1.5436
 IR Inten    --      1.5935                 2.4985                20.7018

                     58                     59                     60
                      A                      A                      A
 Frequencies --    816.7855               834.2763               851.0978
 Red. masses --      6.6679                 5.8240                 4.9372
 Frc consts  --      2.6209                 2.3883                 2.1071
 IR Inten    --     18.4077                 6.3029                23.1792

                     61                     62                     63
                      A                      A                      A
 Frequencies --    869.2263               891.6384               910.0611
 Red. masses --      4.8657                 4.1840                 4.7633
 Frc consts  --      2.1660                 1.9598                 2.3243
 IR Inten    --      2.7985                 2.8514                 7.8677

                     64                     65                     66
                      A                      A                      A
 Frequencies --    936.3791               965.4274               982.3239
 Red. masses --      3.9492                 1.6571                 1.2063
 Frc consts  --      2.0402                 0.9100                 0.6858
 IR Inten    --     14.0160                 3.5673                 8.2992

                     67                     68                     69
                      A                      A                      A
 Frequencies --   1022.0628              1053.4610              1061.4732
 Red. masses --      4.1243                 2.2395                 4.6127
 Frc consts  --      2.5384                 1.4643                 3.0621
 IR Inten    --      1.8689                24.0025                 9.1950

                     70                     71                     72
                      A                      A                      A
 Frequencies --   1145.4840              1163.0717              1186.4109
 Red. masses --      5.7796                 6.4254                 5.5350
 Frc consts  --      4.4682                 5.1211                 4.5903
 IR Inten    --     11.3525                35.1663                 8.7608

                     73                     74                     75
                      A                      A                      A
 Frequencies --   1215.4746              1297.1859              1369.2625
 Red. masses --      7.1616                 8.1668                 8.9562
 Frc consts  --      6.2338                 8.0967                 9.8934
 IR Inten    --      0.2881                27.4016                15.2320

                     76                     77                     78
                      A                      A                      A
 Frequencies --   1402.0778              1435.9146              1436.3662
 Red. masses --      7.9231                 7.9757                 8.8814
 Frc consts  --      9.1768                 9.6890                10.7959
 IR Inten    --      0.3462                22.0098                 4.5311

                     79                     80                     81
                      A                      A                      A
 Frequencies --   1448.5984              1503.0711              1516.9352
 Red. masses --     11.8183                 9.9377                 8.5554
 Frc consts  --     14.6117                13.2281                11.5991
 IR Inten    --    161.9543               187.7369                 0.5079

                     82                     83                     84
                      A                      A                      A
 Frequencies --   1639.4402              1667.4646              1695.9111
 Red. masses --     11.1085                10.1180                 9.7098
 Frc consts  --     17.5913                16.5751                16.4537
 IR Inten    --     71.6645                 9.6835                17.3366

                     85                     86                     87
                      A                      A                      A
 Frequencies --   1739.0234              1845.7207              4346.7481
 Red. masses --     10.1371                12.6531                 1.0860
 Frc consts  --     18.0624                25.3969                12.0900
 IR Inten    --      2.4597               417.7556                20.3893

                     88                     89                     90
                      A                      A                      A
 Frequencies --   4420.5234              4428.6032              4537.9141
 Red. masses --      1.0608                 1.0607                 1.1074
 Frc consts  --     12.2133                12.2570                13.4354
 IR Inten    --     18.1583                18.1358                 5.4733

                     91                     92                     93
                      A                      A                      A
 Frequencies --   4551.2543              5008.2228              5015.0933
 Red. masses --      1.1090                 1.0756                 1.0862
 Frc consts  --     13.5342                15.8956                16.0956
 IR Inten    --      3.8306                 7.7070                 0.4736

                     94                     95                     96
                      A                      A                      A
 Frequencies --   5021.8382              5025.9355              5028.5832
 Red. masses --      1.0875                 1.0874                 1.0900
 Frc consts  --     16.1581                16.1834                16.2394
 IR Inten    --      0.7829                 5.4478                 5.7099

                     97                     98                     99
                      A                      A                      A
 Frequencies --   5036.1403              5037.0144              5039.4142
 Red. masses --      1.0911                 1.0903                 1.0920
 Frc consts  --     16.3050                16.2983                16.3386
 IR Inten    --      2.0029                 2.7796                 4.1688

                    100                    101                    102
                      A                      A                      A
 Frequencies --   5039.5770              5051.1557              6299.0557
 Red. masses --      1.0881                 1.0907                 1.0668
 Frc consts  --     16.2822                16.3963                24.9401
 IR Inten    --      0.2019                 1.2759               100.5036

 - Thermochemistry -
 -------------------
 Temperature   298.150 Kelvin.  Pressure   1.00000 Atm.
 Atom     1 has atomic number  8 and mass  15.99491

 Molecular mass:   270.11302 amu.
 Principal axes and moments of inertia in atomic units:
                           1         2         3
     Eigenvalues --  2343.55252********************
           X            1.00000  -0.00088  -0.00100
           Y            0.00087   0.99992  -0.01242
           Z            0.00101   0.01242   0.99992
 This molecule is an asymmetric top.
 Rotational symmetry number  1.
 Warning -- assumption of classical behavior for rotation
           may cause significant error
 Rotational temperatures (Kelvin)      0.03696     0.00762     0.00689
 Rotational constants (GHZ):           0.77009     0.15877     0.14348
   31 imaginary frequencies ignored.
 Zero-point vibrational energy     764750.3 (Joules/Mol)
                                  182.77970 (Kcal/Mol)
 Warning -- explicit consideration of  17 degrees of freedom as
           vibrations may cause significant error
 Vibrational temperatures:    171.15   234.74   249.96   276.16   286.82
          (Kelvin)            416.90   513.97   532.14   586.13   635.89
                              661.77   737.46   765.83   770.66   783.06
                              839.94   892.34   956.89   983.05   991.64
                             1015.26  1040.46  1066.60  1101.77  1128.61
                             1162.11  1175.17  1200.34  1224.54  1250.62
                             1282.87  1309.38  1347.24  1389.03  1413.35
                             1470.52  1515.70  1527.22  1648.10  1673.40
                             1706.98  1748.80  1866.36  1970.06  2017.28
                             2065.96  2066.61  2084.21  2162.58  2182.53
                             2358.79  2399.11  2440.04  2502.07  2655.58
                             6254.00  6360.15  6371.77  6529.05  6548.24
                             7205.72  7215.60  7225.31  7231.20  7235.01
                             7245.88  7247.14  7250.59  7250.83  7267.49
                             9062.94

 Zero-point correction=                           0.291278 (Hartree/Particle)
 Thermal correction to Energy=                    0.301910
 Thermal correction to Enthalpy=                  0.302855
 Thermal correction to Gibbs Free Energy=         0.253892
 Sum of electronic and zero-point Energies=           -897.540372
 Sum of electronic and thermal Energies=              -897.529739
 Sum of electronic and thermal Enthalpies=            -897.528795
 Sum of electronic and thermal Free Energies=         -897.577758

                     E (Thermal)             CV                S
                      KCal/Mol        Cal/Mol-Kelvin    Cal/Mol-Kelvin
 Total                  189.452             45.518            103.050
 Electronic               0.000              0.000              0.000
 Translational            0.889              2.981             42.680
 Rotational               0.889              2.981             34.171
 Vibrational            187.674             39.556             26.199
 Vibration     1          0.609              1.934              3.117
 Vibration     2          0.623              1.888              2.513
 Vibration     3          0.627              1.875              2.395
 Vibration     4          0.634              1.851              2.209
 Vibration     5          0.637              1.841              2.139
 Vibration     6          0.686              1.693              1.475
 Vibration     7          0.732              1.560              1.134
 Vibration     8          0.742              1.534              1.080
 Vibration     9          0.772              1.454              0.936
 Vibration    10          0.802              1.379              0.820
 Vibration    11          0.818              1.339              0.766
 Vibration    12          0.868              1.222              0.627
 Vibration    13          0.887              1.179              0.582
 Vibration    14          0.891              1.171              0.575
 Vibration    15          0.899              1.152              0.556
 Vibration    16          0.941              1.066              0.478
 Vibration    17          0.980              0.989              0.416

 Normal termination of Gaussian 16 at Mon Mar  6 11:18:51 2023.
