 Gaussian 16, Revision C.01,
 Gaussian 16:  ES64L-G16RevC.01  3-Jul-2019

 ----------------------------------------------------------------------
 #p pop=(regular,nbo,savenbos) freq=noraman def2svp empiricaldispersion
 =gd3bj output=wfx pbe1pbe
 ----------------------------------------------------------------------

 ----------------------------------------
 GIMQEA_Complex_0_Ligand_0_ON_Cu_oriented
 ----------------------------------------
 Symbolic Z-matrix:
 Charge = -1 Multiplicity = 1

                         Standard orientation:
 ---------------------------------------------------------------------
 Center     Atomic      Atomic             Coordinates (Angstroms)
 Number     Number       Type             X           Y           Z
 ---------------------------------------------------------------------
      1          8           0        0.982979    2.733985   -0.377759
      2          8           0       -2.829844   -0.648277   -0.825914
      3          7           0       -1.082815    1.174825    0.682128
      4          6           0        1.201459    0.454910    0.305132
      5          6           0        1.701588    1.647119   -0.254868
      6          6           0        3.034836    1.657728   -0.721909
      7          6           0        2.069196   -0.659020    0.436899
      8          1           0        1.752940   -1.448883    0.814349
      9          6           0       -0.161762    0.292741    0.720789
     10          1           0       -0.398321   -0.542470    1.054065
     11          6           0       -2.437429    0.717746    1.108685
     12          1           0       -2.844457    1.396889    1.668500
     13          1           0       -2.352239   -0.092574    1.634912
     14          6           0       -3.324249    0.452094   -0.078599
     15          1           0       -3.341793    1.247020   -0.650672
     16          6           0       -4.751728    0.091257    0.318234
     17          1           0       -4.825451   -0.008416    1.280436
     18          1           0       -5.372976    0.776529    0.026050
     19          6           0       -3.755994   -1.643569   -0.821544
     20          1           0       -3.453155   -2.368191   -0.252559
     21          6           0       -5.015016   -1.142225   -0.338065
     22          1           0       -5.628253   -1.004822   -1.077368
     23          1           0       -5.412965   -1.774350    0.280486
     24         17           0        4.435391   -1.957154    0.190404
     25          6           0        3.846078    0.571136   -0.590453
     26          1           0        4.720659    0.599894   -0.904751
     27          6           0        3.361108   -0.582051    0.014757
     28          1           0        3.367207    2.424631   -1.129259
     29          1           0       -3.866739   -1.990278   -1.720930
 ---------------------------------------------------------------------

 SCF Done:  E(RPBE1PBE) =  -1128.73873709     A.U. after   17 cycles

 The electronic state is 1-A.
 Alpha  occ. eigenvalues -- -101.53610 -19.09239 -18.94648 -14.20825 -10.15216
 Alpha  occ. eigenvalues --  -10.14186 -10.11646 -10.10707 -10.10616 -10.09872
 Alpha  occ. eigenvalues --  -10.09562 -10.09232 -10.07335 -10.07031 -10.05809
 Alpha  occ. eigenvalues --  -10.04439  -9.38791  -7.12876  -7.11977  -7.11955
 Alpha  occ. eigenvalues --   -0.97144  -0.79143  -0.77422  -0.75492  -0.75447
 Alpha  occ. eigenvalues --   -0.69903  -0.68302  -0.63669  -0.60321  -0.55915
 Alpha  occ. eigenvalues --   -0.54405  -0.51855  -0.49888  -0.48030  -0.46357
 Alpha  occ. eigenvalues --   -0.43829  -0.42141  -0.38143  -0.37904  -0.36753
 Alpha  occ. eigenvalues --   -0.35367  -0.33942  -0.33297  -0.31597  -0.30984
 Alpha  occ. eigenvalues --   -0.30024  -0.28603  -0.26871  -0.26090  -0.25768
 Alpha  occ. eigenvalues --   -0.25001  -0.23485  -0.22675  -0.21528  -0.18723
 Alpha  occ. eigenvalues --   -0.18206  -0.17514  -0.15451  -0.13960  -0.10319
 Alpha  occ. eigenvalues --   -0.10016  -0.03185  -0.02189
 Alpha virt. eigenvalues --    0.12325   0.15172   0.18263   0.18626   0.20116
 Alpha virt. eigenvalues --    0.20630   0.21456   0.21924   0.24492   0.24787
 Alpha virt. eigenvalues --    0.26207   0.26489   0.26736   0.27637   0.28882

 Mulliken charges:
               1
     1  O   -0.432383
     2  O   -0.413844
     3  N   -0.228834
     4  C   -0.098866
     5  C    0.170312
     6  C    0.017653
     7  C    0.093428
     8  H   -0.167149
     9  C    0.143565
    10  H   -0.161005
    11  C    0.337357
    12  H   -0.053338
    13  H   -0.101548
    14  C    0.047527
    15  H   -0.032626
    16  C    0.175797
    17  H   -0.054953
    18  H   -0.038471
    19  C    0.404920
    20  H   -0.064901
    21  C   -0.010259
    22  H   -0.036871
    23  H   -0.045581
    24  Cl  -0.213466
    25  C    0.119791
    26  H   -0.154989
    27  C    0.015092
    28  H   -0.157983
    29  H   -0.058377
 Sum of Mulliken charges =  -1.00000

 Dipole moment (field-independent basis, Debye):
    X=             -8.3557    Y=             -6.0694    Z=              1.0956  Tot=             10.3853
 Quadrupole moment (field-independent basis, Debye-Ang):
   XX=           -122.0798   YY=           -125.4551   ZZ=           -103.5896
   XY=              3.8678   XZ=             -1.6626   YZ=              0.6147

  Exact polarizability:     222.003     -13.865     141.761     -19.612     -10.736      91.836
 Approx polarizability:     285.280     -40.335     236.301     -30.653     -24.474     138.717

 Summary of Natural Population Analysis:

                                       Natural Population
                Natural  -----------------------------------------------
    Atom  No    Charge         Core      Valence    Rydberg      Total
 -----------------------------------------------------------------------
      O    1   -0.71904      1.99980     6.71143    0.00781     8.71904
      O    2   -0.60274      1.99971     6.59075    0.01227     8.60274
      N    3   -0.49121      1.99935     5.47260    0.01927     7.49121
      C    4   -0.19859      1.99892     4.18071    0.01897     6.19859
      C    5    0.39346      1.99885     3.56847    0.03922     5.60654
      C    6   -0.24026      1.99898     4.22156    0.01971     6.24026
      C    7   -0.18450      1.99888     4.16855    0.01708     6.18450
      H    8    0.16836      0.00000     0.82689    0.00475     0.83164
      C    9    0.14095      1.99903     3.83174    0.02827     5.85905
      H   10    0.10054      0.00000     0.89050    0.00896     0.89946
      C   11   -0.18835      1.99891     4.17116    0.01829     6.18835
      H   12    0.17360      0.00000     0.82260    0.00380     0.82640
      H   13    0.14457      0.00000     0.84664    0.00879     0.85543
      C   14    0.16707      1.99895     3.80948    0.02450     5.83293
      H   15    0.16334      0.00000     0.82986    0.00680     0.83666
      C   16   -0.39823      1.99911     4.38500    0.01411     6.39823
      H   17    0.18261      0.00000     0.81316    0.00424     0.81739
      H   18    0.19157      0.00000     0.80505    0.00339     0.80843
      C   19    0.02141      1.99903     3.95965    0.01992     5.97859
      H   20    0.13900      0.00000     0.85604    0.00496     0.86100
      C   21   -0.40157      1.99915     4.39064    0.01178     6.40157
      H   22    0.17988      0.00000     0.81590    0.00423     0.82012
      H   23    0.18903      0.00000     0.80701    0.00396     0.81097
     Cl   24   -0.10771      9.99962     7.09229    0.01580    17.10771
      C   25   -0.21003      1.99895     4.19451    0.01656     6.21003
      H   26    0.16550      0.00000     0.83026    0.00425     0.83450
      C   27   -0.09690      1.99868     4.07607    0.02215     6.09690
      H   28    0.16568      0.00000     0.82882    0.00549     0.83432
      H   29    0.15257      0.00000     0.84344    0.00399     0.84743
 =======================================================================
   * Total *   -1.00000     39.98592    85.64077    0.37331   126.00000

 ******   20 imaginary frequencies (negative Signs) ******

                      1                      2                      3
                      A                      A                      A
 Frequencies --  -1445.7583             -1400.6827             -1343.6246
 Red. masses --      1.0718                 1.0442                 1.0503
 Frc consts  --      1.3200                 1.2071                 1.1171
 IR Inten    --     32.9191                11.0083                11.4707

                      4                      5                      6
                      A                      A                      A
 Frequencies --  -1251.0087             -1081.2312             -1067.5139
 Red. masses --      1.0376                 1.0376                 1.0549
 Frc consts  --      0.9567                 0.7147                 0.7083
 IR Inten    --      0.1515                 2.4823                 0.5103

                      7                      8                      9
                      A                      A                      A
 Frequencies --  -1036.2890             -1016.0093              -973.7648
 Red. masses --      1.0400                 1.0648                 1.0820
 Frc consts  --      0.6580                 0.6476                 0.6045
 IR Inten    --      2.1931                 0.6179                 5.7867

                     10                     11                     12
                      A                      A                      A
 Frequencies --   -897.9926              -838.9441              -699.7959
 Red. masses --      1.0689                 1.0698                 1.1739
 Frc consts  --      0.5078                 0.4436                 0.3387
 IR Inten    --      2.3354                 4.6591                 2.0942

                     13                     14                     15
                      A                      A                      A
 Frequencies --   -551.7537              -522.2714              -484.6572
 Red. masses --      1.7043                 1.3440                 1.7101
 Frc consts  --      0.3057                 0.2160                 0.2367
 IR Inten    --      1.0989                 1.6320                 1.2178

                     16                     17                     18
                      A                      A                      A
 Frequencies --   -457.0366              -380.2759              -326.7040
 Red. masses --      1.5024                 1.2497                 1.7316
 Frc consts  --      0.1849                 0.1065                 0.1089
 IR Inten    --     15.0959                 2.1293                 4.4153

                     19                     20                     21
                      A                      A                      A
 Frequencies --   -204.9078               -35.9316               132.3278
 Red. masses --      3.3977                 1.4338                11.2628
 Frc consts  --      0.0841                 0.0011                 0.1162
 IR Inten    --      5.6913                 8.3541                 1.9474

                     22                     23                     24
                      A                      A                      A
 Frequencies --    146.8510               195.6009               255.1973
 Red. masses --      9.0488                 6.8560                 4.2326
 Frc consts  --      0.1150                 0.1545                 0.1624
 IR Inten    --      0.0915                 0.3847                 2.1429

                     25                     26                     27
                      A                      A                      A
 Frequencies --    306.4151               336.4801               372.1087
 Red. masses --      9.5595                 1.4833                 6.3572
 Frc consts  --      0.5288                 0.0989                 0.5186
 IR Inten    --      2.1928                 7.0860                 4.1839

                     28                     29                     30
                      A                      A                      A
 Frequencies --    421.6958               433.3610               495.0757
 Red. masses --      9.6594                 5.1336                 5.1705
 Frc consts  --      1.0120                 0.5680                 0.7467
 IR Inten    --      2.0948                 5.1056                 7.0895

                     31                     32                     33
                      A                      A                      A
 Frequencies --    504.1960               562.8231               602.6345
 Red. masses --      3.0221                 2.9662                10.9306
 Frc consts  --      0.4526                 0.5536                 2.3389
 IR Inten    --      3.3939                38.5006                 0.0140

                     34                     35                     36
                      A                      A                      A
 Frequencies --    637.3138               658.5685               666.2550
 Red. masses --     11.1441                 1.9823                 6.8648
 Frc consts  --      2.6669                 0.5065                 1.7954
 IR Inten    --      0.0903                 2.5757                12.8661

                     37                     38                     39
                      A                      A                      A
 Frequencies --    714.7209               738.6906               742.7502
 Red. masses --      3.1481                 3.0334                 4.1288
 Frc consts  --      0.9475                 0.9752                 1.3420
 IR Inten    --     36.7644                21.5525                15.0736

                     40                     41                     42
                      A                      A                      A
 Frequencies --    769.1600               789.3741               814.2616
 Red. masses --      2.1042                 3.9962                 2.1988
 Frc consts  --      0.7334                 1.4671                 0.8589
 IR Inten    --     14.6257                 6.1411                 3.2056

                     43                     44                     45
                      A                      A                      A
 Frequencies --    841.5251               844.7238               883.5924
 Red. masses --     10.9414                 2.3360                 2.2664
 Frc consts  --      4.5652                 0.9821                 1.0425
 IR Inten    --     10.1704                 7.9365                12.6676

                     46                     47                     48
                      A                      A                      A
 Frequencies --    902.0338               911.5357               939.8601
 Red. masses --      4.6143                 2.0667                 1.6395
 Frc consts  --      2.2121                 1.0117                 0.8533
 IR Inten    --      1.1512                 0.8333                21.2317

                     49                     50                     51
                      A                      A                      A
 Frequencies --    945.0331               987.8847              1022.2554
 Red. masses --      2.5632                 2.8673                 1.8566
 Frc consts  --      1.3487                 1.6487                 1.1431
 IR Inten    --      2.9038                13.2356                12.5653

                     52                     53                     54
                      A                      A                      A
 Frequencies --   1033.4537              1059.0183              1090.1657
 Red. masses --      1.5804                 1.2496                 2.1397
 Frc consts  --      0.9945                 0.8257                 1.4983
 IR Inten    --     16.7742                21.5971                 4.5730

                     55                     56                     57
                      A                      A                      A
 Frequencies --   1118.2575              1162.8383              1216.7280
 Red. masses --      1.3086                 4.7787                 8.0556
 Frc consts  --      0.9641                 3.8071                 7.0264
 IR Inten    --      1.0175                12.4701                 8.0038

                     58                     59                     60
                      A                      A                      A
 Frequencies --   1274.9418              1289.0521              1318.2817
 Red. masses --      9.2484                 6.0115                 9.3262
 Frc consts  --      8.8572                 5.8854                 9.5493
 IR Inten    --     58.4223                24.0968                27.1888

                     61                     62                     63
                      A                      A                      A
 Frequencies --   1381.9808              1439.7082              1453.0896
 Red. masses --      5.8686                11.1793                10.3159
 Frc consts  --      6.6037                13.6525                12.8334
 IR Inten    --    102.3641               156.9305               159.0840

                     64                     65                     66
                      A                      A                      A
 Frequencies --   1482.9964              1538.9502              1638.9106
 Red. masses --      7.1382                 9.5614                10.4860
 Frc consts  --      9.2496                13.3420                16.5947
 IR Inten    --     17.8470                87.0124                78.5406

                     67                     68                     69
                      A                      A                      A
 Frequencies --   1687.1734              1742.0248              4370.8883
 Red. masses --     10.6229                10.5016                 1.0879
 Frc consts  --     17.8160                18.7766                12.2452
 IR Inten    --    224.7316               291.3356                16.2731

                     70                     71                     72
                      A                      A                      A
 Frequencies --   4392.6931              4401.6306              4408.3322
 Red. masses --      1.0591                 1.0602                 1.0590
 Frc consts  --     12.0407                12.1019                12.1256
 IR Inten    --     12.5157                71.2121                73.3907

                     73                     74                     75
                      A                      A                      A
 Frequencies --   4413.5968              4504.2726              4520.3198
 Red. masses --      1.0634                 1.1097                 1.1092
 Frc consts  --     12.2049                13.2652                13.3541
 IR Inten    --     40.9805                12.2086                 9.4223

                     76                     77                     78
                      A                      A                      A
 Frequencies --   4533.6733              4535.5006              4993.2467
 Red. masses --      1.1087                 1.1092                 1.0867
 Frc consts  --     13.4268                13.4440                15.9639
 IR Inten    --     21.3229                18.4013                39.9963

                     79                     80                     81
                      A                      A                      A
 Frequencies --   5016.9962              5026.2235              5040.5319
 Red. masses --      1.0889                 1.0874                 1.0909
 Frc consts  --     16.1484                16.1855                16.3293
 IR Inten    --      2.1630                 1.7163                 3.2534

 - Thermochemistry -
 -------------------
 Temperature   298.150 Kelvin.  Pressure   1.00000 Atm.
 Atom     1 has atomic number  8 and mass  15.99491

 Molecular mass:   238.06348 amu.
 Principal axes and moments of inertia in atomic units:
                           1         2         3
     Eigenvalues --  1884.595209298.81333**********
           X            0.99984   0.01740  -0.00347
           Y           -0.01739   0.99984   0.00324
           Z            0.00353  -0.00318   0.99999
 This molecule is an asymmetric top.
 Rotational symmetry number  1.
 Warning -- assumption of classical behavior for rotation
           may cause significant error
 Rotational temperatures (Kelvin)      0.04596     0.00931     0.00818
 Rotational constants (GHZ):           0.95763     0.19408     0.17042
   20 imaginary frequencies ignored.
 Zero-point vibrational energy     614041.9 (Joules/Mol)
                                  146.75953 (Kcal/Mol)
 Warning -- explicit consideration of  13 degrees of freedom as
           vibrations may cause significant error
 Vibrational temperatures:    190.39   211.29   281.43   367.17   440.86
          (Kelvin)            484.12   535.38   606.73   623.51   712.30
                              725.43   809.78   867.06   916.95   947.53
                              958.59  1028.32  1062.81  1068.65  1106.65
                             1135.73  1171.54  1210.77  1215.37  1271.29
                             1297.83  1311.50  1352.25  1359.69  1421.35
                             1470.80  1486.91  1523.69  1568.51  1608.92
                             1673.06  1750.60  1834.36  1854.66  1896.71
                             1988.36  2071.42  2090.67  2133.70  2214.21
                             2358.03  2427.47  2506.39  6288.73  6320.11
                             6332.96  6342.61  6350.18  6480.64  6503.73
                             6522.94  6525.57  7184.17  7218.34  7231.61
                             7252.20

 Zero-point correction=                           0.233876 (Hartree/Particle)
 Thermal correction to Energy=                    0.243182
 Thermal correction to Enthalpy=                  0.244126
 Thermal correction to Gibbs Free Energy=         0.197868
 Sum of electronic and zero-point Energies=          -1128.504861
 Sum of electronic and thermal Energies=             -1128.495555
 Sum of electronic and thermal Enthalpies=           -1128.494611
 Sum of electronic and thermal Free Energies=        -1128.540870

                     E (Thermal)             CV                S
                      KCal/Mol        Cal/Mol-Kelvin    Cal/Mol-Kelvin
 Total                  152.599             39.655             97.360
 Electronic               0.000              0.000              0.000
 Translational            0.889              2.981             42.303
 Rotational               0.889              2.981             33.584
 Vibrational            150.822             33.694             21.473
 Vibration     1          0.612              1.921              2.912
 Vibration     2          0.617              1.906              2.713
 Vibration     3          0.636              1.846              2.174
 Vibration     4          0.666              1.754              1.694
 Vibration     5          0.697              1.662              1.382
 Vibration     6          0.717              1.603              1.229
 Vibration     7          0.744              1.529              1.071
 Vibration     8          0.784              1.423              0.886
 Vibration     9          0.794              1.398              0.848
 Vibration    10          0.851              1.261              0.671
 Vibration    11          0.859              1.241              0.648
 Vibration    12          0.919              1.112              0.518
 Vibration    13          0.961              1.026              0.445

 Normal termination of Gaussian 16 at Mon Mar  6 10:48:09 2023.
