 Gaussian 16, Revision C.01,
 Gaussian 16:  ES64L-G16RevC.01  3-Jul-2019

 ----------------------------------------------------------------------
 #p pop=(regular,nbo,savenbos) freq=noraman def2svp empiricaldispersion
 =gd3bj output=wfx pbe1pbe
 ----------------------------------------------------------------------

 ----------------------------------------
 GIMQAW_Complex_1_Ligand_1_ON_Cu_oriented
 ----------------------------------------
 Symbolic Z-matrix:
 Charge = -1 Multiplicity = 1

                         Standard orientation:
 ---------------------------------------------------------------------
 Center     Atomic      Atomic             Coordinates (Angstroms)
 Number     Number       Type             X           Y           Z
 ---------------------------------------------------------------------
      1          6           0       -0.516298    0.757866   -0.225866
      2          6           0       -0.880203    2.042462    0.201944
      3          6           0       -3.164311    1.285063    0.463692
      4          6           0       -2.786256    0.014903    0.049919
      5          6           0       -1.492849   -0.240246   -0.288840
      6          1           0       -1.253977   -1.094249   -0.568271
      7          6           0        0.833961    0.419989   -0.610772
      8          1           0        0.984149   -0.463038   -0.861108
      9          6           0        3.109435    0.580806   -1.077179
     10          1           0        2.922863   -0.270774   -1.502156
     11          1           0        3.541497    1.153708   -1.730493
     12          6           0        4.044841    0.364171    0.099449
     13          1           0        4.206125    1.221146    0.546199
     14          6           0        4.084369   -1.787430    0.969111
     15          1           0        4.450860   -2.024858    1.836097
     16          1           0        3.434359   -2.459814    0.715549
     17          6           0        5.152185   -1.720756   -0.025663
     18          1           0        4.895463   -2.196494   -0.830458
     19          6           0        5.380317   -0.233628   -0.334492
     20          1           0        5.544450   -0.089689   -1.280946
     21          1           0        6.117986    0.127332    0.178510
     22         35           0       -4.118161   -1.346025   -0.094192
     23          7           0        1.843482    1.200647   -0.643893
     24          8           0        3.485347   -0.551297    1.031859
     25          6           0       -2.219303    2.270037    0.545783
     26          1           0       -2.473819    3.114771    0.838698
     27          8           0       -0.026461    3.029123    0.325054
     28          1           0        5.964768   -2.119710    0.323765
     29          1           0       -4.049892    1.466004    0.680760
 ---------------------------------------------------------------------

 SCF Done:  E(RPBE1PBE) =  -3242.39617915     A.U. after   17 cycles

 The electronic state is 1-A.
 Alpha  occ. eigenvalues -- -483.05683 -62.49044 -56.28009 -56.27704 -56.27695
 Alpha  occ. eigenvalues --  -19.09303 -18.94817 -14.21288 -10.15694 -10.14702
 Alpha  occ. eigenvalues --  -10.11807 -10.11778 -10.11615 -10.10108 -10.09751
 Alpha  occ. eigenvalues --  -10.09638 -10.07652 -10.07445 -10.06106 -10.04578
 Alpha  occ. eigenvalues --   -8.63641  -6.45023  -6.43898  -6.43864  -2.53597
 Alpha  occ. eigenvalues --   -2.53272  -2.53245  -2.52342  -2.52342  -0.96312
 Alpha  occ. eigenvalues --   -0.79542  -0.77877  -0.73386  -0.73293  -0.69920
 Alpha  occ. eigenvalues --   -0.66534  -0.64024  -0.60411  -0.56026  -0.54934
 Alpha  occ. eigenvalues --   -0.51782  -0.50152  -0.48392  -0.45070  -0.43230
 Alpha  occ. eigenvalues --   -0.42280  -0.38898  -0.37713  -0.36435  -0.34959
 Alpha  occ. eigenvalues --   -0.34111  -0.33910  -0.31783  -0.31311  -0.29699
 Alpha  occ. eigenvalues --   -0.28798  -0.26798  -0.26183  -0.25945  -0.24469
 Alpha  occ. eigenvalues --   -0.22971  -0.22247  -0.20559  -0.18837  -0.17643
 Alpha  occ. eigenvalues --   -0.16855  -0.15630  -0.13961  -0.10700  -0.10528
 Alpha  occ. eigenvalues --   -0.03403  -0.02580
 Alpha virt. eigenvalues --    0.12048   0.15460   0.16055   0.18218   0.18638
 Alpha virt. eigenvalues --    0.19753   0.21054   0.21813   0.24079   0.24607
 Alpha virt. eigenvalues --    0.25597   0.25846   0.26265   0.26405   0.28403

 Mulliken charges:
               1
     1  C   -0.088144
     2  C    0.166368
     3  C    0.119471
     4  C   -0.064756
     5  C    0.096068
     6  H   -0.163483
     7  C    0.143012
     8  H   -0.161528
     9  C    0.352863
    10  H   -0.112076
    11  H   -0.055138
    12  C    0.079450
    13  H   -0.032008
    14  C    0.397372
    15  H   -0.055703
    16  H   -0.051048
    17  C   -0.015693
    18  H   -0.024158
    19  C    0.106899
    20  H   -0.037949
    21  H   -0.031218
    22  Br  -0.168627
    23  N   -0.215013
    24  O   -0.426867
    25  C    0.020227
    26  H   -0.157821
    27  O   -0.433057
    28  H   -0.038994
    29  H   -0.148451
 Sum of Mulliken charges =  -1.00000

 Dipole moment (field-independent basis, Debye):
    X=              4.7689    Y=             -7.8837    Z=             -1.3959  Tot=              9.3190
 Quadrupole moment (field-independent basis, Debye-Ang):
   XX=           -124.7650   YY=           -132.5107   ZZ=           -110.7716
   XY=             -8.8168   XZ=             -2.8630   YZ=             -1.0851

  Exact polarizability:     235.838       9.850     151.953     -16.879       9.162      92.745
 Approx polarizability:     307.131      38.400     247.055     -25.102      20.427     140.479

 Summary of Natural Population Analysis:

                                       Natural Population
                Natural  -----------------------------------------------
    Atom  No    Charge         Core      Valence    Rydberg      Total
 -----------------------------------------------------------------------
      C    1   -0.19394      1.99889     4.17594    0.01911     6.19394
      C    2    0.39174      1.99882     3.57032    0.03912     5.60826
      C    3   -0.20469      1.99894     4.18868    0.01707     6.20469
      C    4   -0.17769      1.99870     4.15799    0.02100     6.17769
      C    5   -0.18287      1.99885     4.16651    0.01751     6.18287
      H    6    0.16931      0.00000     0.82629    0.00440     0.83069
      C    7    0.14519      1.99904     3.82720    0.02857     5.85481
      H    8    0.09795      0.00000     0.89289    0.00916     0.90205
      C    9   -0.19049      1.99892     4.17277    0.01880     6.19049
      H   10    0.14036      0.00000     0.85071    0.00893     0.85964
      H   11    0.17454      0.00000     0.82170    0.00376     0.82546
      C   12    0.16744      1.99894     3.80939    0.02423     5.83256
      H   13    0.16947      0.00000     0.82438    0.00615     0.83053
      C   14    0.02088      1.99902     3.96190    0.01820     5.97912
      H   15    0.14244      0.00000     0.85328    0.00428     0.85756
      H   16    0.15183      0.00000     0.84392    0.00426     0.84817
      C   17   -0.39853      1.99914     4.38829    0.01111     6.39853
      H   18    0.18128      0.00000     0.81480    0.00392     0.81872
      C   19   -0.39061      1.99911     4.37812    0.01338     6.39061
      H   20    0.18876      0.00000     0.80780    0.00344     0.81124
      H   21    0.18046      0.00000     0.81600    0.00354     0.81954
     Br   22   -0.05159     27.99922     7.03343    0.01895    35.05159
      N   23   -0.48243      1.99934     5.46370    0.01938     7.48243
      O   24   -0.60725      1.99972     6.59588    0.01165     8.60725
      C   25   -0.24074      1.99898     4.22189    0.01987     6.24074
      H   26    0.16705      0.00000     0.82740    0.00555     0.83295
      O   27   -0.71900      1.99980     6.71141    0.00779     8.71900
      H   28    0.18492      0.00000     0.81150    0.00359     0.81508
      H   29    0.16622      0.00000     0.83005    0.00373     0.83378
 =======================================================================
   * Total *   -1.00000     57.98543    85.64413    0.37044   144.00000

 ******   20 imaginary frequencies (negative Signs) ******

                      1                      2                      3
                      A                      A                      A
 Frequencies --  -1446.1601             -1400.9753             -1346.8481
 Red. masses --      1.0725                 1.0443                 1.0472
 Frc consts  --      1.3216                 1.2076                 1.1192
 IR Inten    --     32.0134                 9.2657                 9.8939

                      4                      5                      6
                      A                      A                      A
 Frequencies --  -1253.4910             -1086.1961             -1076.0455
 Red. masses --      1.0364                 1.0387                 1.0323
 Frc consts  --      0.9594                 0.7221                 0.7043
 IR Inten    --      0.1408                 5.1286                 2.1321

                      7                      8                      9
                      A                      A                      A
 Frequencies --  -1056.3640             -1007.6278              -971.1410
 Red. masses --      1.0387                 1.0579                 1.0826
 Frc consts  --      0.6829                 0.6328                 0.6016
 IR Inten    --      0.9117                 0.5872                 6.7845

                     10                     11                     12
                      A                      A                      A
 Frequencies --   -884.8721              -827.9466              -694.8506
 Red. masses --      1.0713                 1.0641                 1.1692
 Frc consts  --      0.4942                 0.4298                 0.3326
 IR Inten    --      2.1436                 5.3785                 3.2413

                     13                     14                     15
                      A                      A                      A
 Frequencies --   -626.0611              -539.9546              -513.6598
 Red. masses --      1.2398                 1.4574                 1.3481
 Frc consts  --      0.2863                 0.2504                 0.2096
 IR Inten    --      1.1390                 8.9109                 3.5748

                     16                     17                     18
                      A                      A                      A
 Frequencies --   -494.4051              -442.4100              -416.8228
 Red. masses --      1.2708                 1.5749                 1.5566
 Frc consts  --      0.1830                 0.1816                 0.1593
 IR Inten    --      4.2264                 3.5563                 4.8221

                     19                     20                     21
                      A                      A                      A
 Frequencies --   -331.1401              -204.2772               114.3770
 Red. masses --      1.5246                 3.3633                10.6200
 Frc consts  --      0.0985                 0.0827                 0.0819
 IR Inten    --      6.6624                 4.9622                 1.2021

                     22                     23                     24
                      A                      A                      A
 Frequencies --    136.4998               155.1768               224.0256
 Red. masses --      8.7276                 6.0228                 2.5393
 Frc consts  --      0.0958                 0.0854                 0.0751
 IR Inten    --      0.1365                 0.0783                 3.5945

                     25                     26                     27
                      A                      A                      A
 Frequencies --    276.7704               290.7524               310.5453
 Red. masses --      4.0989                 5.0142                15.4972
 Frc consts  --      0.1850                 0.2497                 0.8806
 IR Inten    --      2.3941                 9.5945                 0.0497

                     28                     29                     30
                      A                      A                      A
 Frequencies --    383.2791               433.1584               494.6948
 Red. masses --      5.6713                 4.7663                 2.6944
 Frc consts  --      0.4909                 0.5269                 0.3885
 IR Inten    --      5.6291                 0.8247                 2.5913

                     31                     32                     33
                      A                      A                      A
 Frequencies --    498.9999               521.3522               593.0219
 Red. masses --      2.7851                 1.8041                 2.5721
 Frc consts  --      0.4086                 0.2889                 0.5329
 IR Inten    --      8.0588                17.1894                18.3586

                     34                     35                     36
                      A                      A                      A
 Frequencies --    601.2502               624.4984               655.4987
 Red. masses --     10.6391                11.2610                 7.3371
 Frc consts  --      2.2660                 2.5876                 1.8575
 IR Inten    --      0.1321                 0.1463                17.4593

                     37                     38                     39
                      A                      A                      A
 Frequencies --    688.9612               712.9512               722.4042
 Red. masses --      3.4961                 2.6461                 3.2320
 Frc consts  --      0.9777                 0.7925                 0.9938
 IR Inten    --     38.7972                12.7017                 4.1095

                     40                     41                     42
                      A                      A                      A
 Frequencies --    728.3762               779.3224               786.5157
 Red. masses --      3.7958                 2.6850                 3.9877
 Frc consts  --      1.1865                 0.9608                 1.4534
 IR Inten    --     25.6901                10.6390                 1.4884

                     43                     44                     45
                      A                      A                      A
 Frequencies --    830.2913               836.7732               866.8109
 Red. masses --      2.5310                 9.4247                 3.9138
 Frc consts  --      1.0280                 3.8881                 1.7326
 IR Inten    --      0.0704                11.8424                 5.6108

                     46                     47                     48
                      A                      A                      A
 Frequencies --    874.8364               910.6296               918.9144
 Red. masses --      1.9158                 3.8315                 4.5445
 Frc consts  --      0.8639                 1.8720                 2.2609
 IR Inten    --     12.6727                 3.5460                 3.4666

                     49                     50                     51
                      A                      A                      A
 Frequencies --    950.8056               981.1035               990.1900
 Red. masses --      1.4507                 2.4737                 1.3809
 Frc consts  --      0.7727                 1.4029                 0.7977
 IR Inten    --     22.4115                21.1054                 7.2449

                     52                     53                     54
                      A                      A                      A
 Frequencies --   1010.4333              1024.5945              1063.0586
 Red. masses --      1.2298                 3.4351                 3.5526
 Frc consts  --      0.7398                 2.1247                 2.3655
 IR Inten    --     16.7483                 6.5071                15.5110

                     55                     56                     57
                      A                      A                      A
 Frequencies --   1098.4176              1112.4296              1142.0525
 Red. masses --      1.4175                 2.4010                 5.2800
 Frc consts  --      1.0076                 1.7506                 4.0575
 IR Inten    --      5.7103                 1.4285                12.9850

                     58                     59                     60
                      A                      A                      A
 Frequencies --   1199.6247              1264.0341              1278.1052
 Red. masses --      7.2075                 9.0655                 4.8268
 Frc consts  --      6.1112                 8.5342                 4.6456
 IR Inten    --     10.8816                45.2353                35.1626

                     61                     62                     63
                      A                      A                      A
 Frequencies --   1325.4890              1337.1478              1451.2354
 Red. masses --      9.3670                 5.8110                10.9010
 Frc consts  --      9.6962                 6.1215                13.5267
 IR Inten    --     58.8641                96.9200               136.5298

                     64                     65                     66
                      A                      A                      A
 Frequencies --   1467.0609              1548.4521              1644.2400
 Red. masses --     10.2649                 9.4442                10.7237
 Frc consts  --     13.0167                13.3417                17.0814
 IR Inten    --    126.8721               137.3486                58.2259

                     67                     68                     69
                      A                      A                      A
 Frequencies --   1697.7016              1739.1517              4375.5970
 Red. masses --     10.6612                10.4748                 1.0881
 Frc consts  --     18.1042                18.6668                12.2740
 IR Inten    --    269.0377               229.2438                11.8977

                     70                     71                     72
                      A                      A                      A
 Frequencies --   4402.6703              4403.4019              4416.2670
 Red. masses --      1.0586                 1.0591                 1.0603
 Frc consts  --     12.0898                12.0993                12.1838
 IR Inten    --     85.1066                41.9756                30.4133

                     73                     74                     75
                      A                      A                      A
 Frequencies --   4424.5472              4519.1486              4526.5524
 Red. masses --      1.0610                 1.1103                 1.1090
 Frc consts  --     12.2378                13.3603                13.3878
 IR Inten    --     30.2708                11.9462                21.9323

                     76                     77                     78
                      A                      A                      A
 Frequencies --   4540.6049              4556.2264              4989.7926
 Red. masses --      1.1098                 1.1098                 1.0866
 Frc consts  --     13.4807                13.5744                15.9403
 IR Inten    --     11.5317                13.0034                41.7113

                     79                     80                     81
                      A                      A                      A
 Frequencies --   5027.7697              5029.8502              5043.2237
 Red. masses --      1.0888                 1.0875                 1.0908
 Frc consts  --     16.2165                16.2104                16.3465
 IR Inten    --      1.4218                 0.7441                 2.8234

 - Thermochemistry -
 -------------------
 Temperature   298.150 Kelvin.  Pressure   1.00000 Atm.
 Atom     1 has atomic number  6 and mass  12.00000

 Molecular mass:   282.01296 amu.
 Principal axes and moments of inertia in atomic units:
                           1         2         3
     Eigenvalues --  2313.25892********************
           X            0.99942  -0.03380  -0.00437
           Y            0.03379   0.99943  -0.00251
           Z            0.00446   0.00236   0.99999
 This molecule is an asymmetric top.
 Rotational symmetry number  1.
 Warning -- assumption of classical behavior for rotation
           may cause significant error
 Rotational temperatures (Kelvin)      0.03744     0.00720     0.00629
 Rotational constants (GHZ):           0.78017     0.15006     0.13099
   20 imaginary frequencies ignored.
 Zero-point vibrational energy     607413.9 (Joules/Mol)
                                  145.17540 (Kcal/Mol)
 Warning -- explicit consideration of  14 degrees of freedom as
           vibrations may cause significant error
 Vibrational temperatures:    164.56   196.39   223.26   322.32   398.21
          (Kelvin)            418.33   446.81   551.45   623.22   711.76
                              717.95   750.11   853.23   865.06   898.51
                              943.12   991.26  1025.78  1039.38  1047.97
                             1121.27  1131.62  1194.60  1203.93  1247.15
                             1258.69  1310.19  1322.11  1368.00  1411.59
                             1424.66  1453.79  1474.16  1529.50  1580.38
                             1600.54  1643.16  1725.99  1818.66  1838.91
                             1907.08  1923.86  2088.00  2110.77  2227.88
                             2365.69  2442.61  2502.25  6295.51  6334.46
                             6335.51  6354.02  6365.94  6502.05  6512.70
                             6532.92  6555.39  7179.20  7233.84  7236.83
                             7256.07

 Zero-point correction=                           0.231352 (Hartree/Particle)
 Thermal correction to Energy=                    0.241207
 Thermal correction to Enthalpy=                  0.242151
 Thermal correction to Gibbs Free Energy=         0.194135
 Sum of electronic and zero-point Energies=          -3242.164827
 Sum of electronic and thermal Energies=             -3242.154972
 Sum of electronic and thermal Enthalpies=           -3242.154028
 Sum of electronic and thermal Free Energies=        -3242.202044

                     E (Thermal)             CV                S
                      KCal/Mol        Cal/Mol-Kelvin    Cal/Mol-Kelvin
 Total                  151.360             41.180            101.058
 Electronic               0.000              0.000              0.000
 Translational            0.889              2.981             42.808
 Rotational               0.889              2.981             34.304
 Vibrational            149.582             35.218             23.945
 Vibration     1          0.607              1.938              3.193
 Vibration     2          0.614              1.917              2.852
 Vibration     3          0.620              1.897              2.608
 Vibration     4          0.649              1.804              1.926
 Vibration     5          0.678              1.716              1.554
 Vibration     6          0.687              1.691              1.470
 Vibration     7          0.699              1.654              1.359
 Vibration     8          0.752              1.506              1.026
 Vibration     9          0.794              1.398              0.848
 Vibration    10          0.850              1.262              0.672
 Vibration    11          0.854              1.252              0.661
 Vibration    12          0.876              1.203              0.607
 Vibration    13          0.951              1.047              0.462
 Vibration    14          0.959              1.029              0.448

 Normal termination of Gaussian 16 at Mon Mar  6 10:55:27 2023.
