 Gaussian 16, Revision C.01,
 Gaussian 16:  ES64L-G16RevC.01  3-Jul-2019

 ----------------------------------------------------------------------
 #p pop=(regular,nbo,savenbos) freq=noraman def2svp empiricaldispersion
 =gd3bj output=wfx pbe1pbe
 ----------------------------------------------------------------------

 ----------------------------------------
 GOYJUB_Complex_4_Ligand_1_ON_Cu_oriented
 ----------------------------------------
 Symbolic Z-matrix:
 Charge = -1 Multiplicity = 1

                         Standard orientation:
 ---------------------------------------------------------------------
 Center     Atomic      Atomic             Coordinates (Angstroms)
 Number     Number       Type             X           Y           Z
 ---------------------------------------------------------------------
      1          7           0        1.026275   -1.729832    1.135542
      2          1           0        1.002389   -0.760921    1.275932
      3          7           0       -4.549555    0.937731   -0.507261
      4          8           0        3.389198   -2.792478    0.543535
      5          8           0       -5.117013    0.612218   -1.518489
      6          8           0       -4.775550    1.986636    0.066750
      7          6           0        1.498906    2.950057   -0.210461
      8          1           0        0.975667    3.717291   -0.199370
      9          6           0        0.943553    1.726742   -0.594081
     10          1           0        0.037385    1.693030   -0.804115
     11          6           0        1.674309    0.583648   -0.670105
     12          6           0        1.043477   -0.690495   -1.166903
     13          1           0        1.358296   -0.855375   -2.070230
     14          1           0        0.083865   -0.557112   -1.215224
     15          6           0        1.315228   -1.939447   -0.327208
     16          1           0        0.690602   -2.626998   -0.640171
     17          6           0        2.712088   -2.501964   -0.520403
     18          6           0       -0.304845   -2.252023    1.583516
     19          1           0       -0.397717   -3.171316    1.289198
     20          1           0       -0.334351   -2.247066    2.553160
     21          6           0       -1.452356   -1.456832    1.057546
     22          6           0       -2.231623   -1.916632   -0.003563
     23          1           0       -2.062952   -2.754138   -0.369553
     24          6           0       -3.251885   -1.137256   -0.515797
     25          1           0       -3.761802   -1.437689   -1.233432
     26          6           0       -3.500714    0.081973    0.049270
     27          6           0       -2.791637    0.553221    1.124074
     28          1           0       -2.999057    1.371144    1.513800
     29          6           0       -1.761697   -0.222841    1.611932
     30          1           0       -1.261915    0.088548    2.331400
     31          8           0        3.430635    4.171810    0.547162
     32          1           0        2.867828    4.762133    0.625377
     33          6           0        2.820308    3.008449    0.149144
     34          6           0        3.011575    0.673000   -0.299872
     35          1           0        3.546993   -0.084715   -0.351084
     36          6           0        3.574392    1.882820    0.152252
     37          1           0        4.454656    1.908386    0.447850
     38          8           0        3.156305   -2.672564   -1.647402
 ---------------------------------------------------------------------

 SCF Done:  E(RPBE1PBE) =  -1102.01478594     A.U. after   19 cycles

 The electronic state is 1-A.
 Alpha  occ. eigenvalues --  -19.15282 -19.14799 -19.13661 -18.96162 -18.94379
 Alpha  occ. eigenvalues --  -14.53878 -14.25572 -10.20307 -10.19082 -10.16814
 Alpha  occ. eigenvalues --  -10.16288 -10.16138 -10.15332 -10.15223 -10.13899
 Alpha  occ. eigenvalues --  -10.12517 -10.12255 -10.12037 -10.11917 -10.11283
 Alpha  occ. eigenvalues --  -10.11242 -10.10883 -10.08860  -1.18150  -1.01900
 Alpha  occ. eigenvalues --   -0.99612  -0.85585  -0.83914  -0.80747  -0.78622
 Alpha  occ. eigenvalues --   -0.74842  -0.73770  -0.72172  -0.70525  -0.68078
 Alpha  occ. eigenvalues --   -0.66274  -0.63229  -0.59147  -0.58849  -0.57020
 Alpha  occ. eigenvalues --   -0.54530  -0.54290  -0.51759  -0.49557  -0.49433
 Alpha  occ. eigenvalues --   -0.48056  -0.45074  -0.44253  -0.42435  -0.41450
 Alpha  occ. eigenvalues --   -0.41295  -0.40773  -0.39966  -0.39516  -0.37091
 Alpha  occ. eigenvalues --   -0.36359  -0.35492  -0.34606  -0.33644  -0.33318
 Alpha  occ. eigenvalues --   -0.32698  -0.31290  -0.31005  -0.29354  -0.29175
 Alpha  occ. eigenvalues --   -0.28673  -0.26584  -0.25604  -0.25374  -0.24380
 Alpha  occ. eigenvalues --   -0.24321  -0.24150  -0.22307  -0.21219  -0.20809
 Alpha  occ. eigenvalues --   -0.20119  -0.19401  -0.16577  -0.14231  -0.12101
 Alpha  occ. eigenvalues --   -0.06693  -0.06170  -0.03429
 Alpha virt. eigenvalues --    0.00294   0.05769   0.08953   0.09550   0.11951
 Alpha virt. eigenvalues --    0.16666   0.17110   0.18884   0.19426   0.20485
 Alpha virt. eigenvalues --    0.22315   0.23120   0.23420   0.23823   0.24490

 Mulliken charges:
               1
     1  N   -0.229347
     2  H    0.090574
     3  N    0.216961
     4  O   -0.450156
     5  O   -0.271194
     6  O   -0.285348
     7  C    0.021299
     8  H   -0.145513
     9  C    0.073451
    10  H   -0.126539
    11  C   -0.153237
    12  C    0.330804
    13  H   -0.020149
    14  H   -0.076529
    15  C   -0.038240
    16  H   -0.045423
    17  C    0.144465
    18  C    0.391201
    19  H   -0.044921
    20  H   -0.040227
    21  C   -0.145007
    22  C    0.095357
    23  H   -0.107269
    24  C    0.071938
    25  H   -0.110919
    26  C    0.197873
    27  C    0.077955
    28  H   -0.110169
    29  C    0.103755
    30  H   -0.107187
    31  O   -0.147062
    32  H    0.079432
    33  C    0.174991
    34  C    0.139273
    35  H   -0.088620
    36  C    0.039776
    37  H   -0.119921
    38  O   -0.386129
 Sum of Mulliken charges =  -1.00000

 Dipole moment (field-independent basis, Debye):
    X=             -9.6936    Y=              7.3022    Z=              3.0096  Tot=             12.5038
 Quadrupole moment (field-independent basis, Debye-Ang):
   XX=           -222.1910   YY=           -161.0917   ZZ=           -142.8212
   XY=             45.7245   XZ=             -1.6131   YZ=             -0.5372

  Exact polarizability:     411.908     -90.978     223.038      14.231      16.121     139.685
 Approx polarizability:     878.781    -288.923     422.127      65.875      32.433     251.348

 Summary of Natural Population Analysis:

                                       Natural Population
                Natural  -----------------------------------------------
    Atom  No    Charge         Core      Valence    Rydberg      Total
 -----------------------------------------------------------------------
      N    1   -0.64556      1.99947     5.62852    0.01757     7.64556
      H    2    0.34893      0.00000     0.64474    0.00633     0.65107
      N    3    0.51876      1.99930     4.42471    0.05723     6.48124
      O    4   -0.76354      1.99978     6.75581    0.00795     8.76354
      O    5   -0.41027      1.99974     6.39478    0.01575     8.41027
      O    6   -0.42761      1.99975     6.41277    0.01509     8.42761
      C    7   -0.27746      1.99898     4.26220    0.01628     6.27746
      H    8    0.16673      0.00000     0.82992    0.00336     0.83327
      C    9   -0.16333      1.99894     4.14933    0.01506     6.16333
      H   10    0.16849      0.00000     0.82812    0.00339     0.83151
      C   11   -0.05500      1.99898     4.03840    0.01762     6.05500
      C   12   -0.39662      1.99897     4.37938    0.01826     6.39662
      H   13    0.22080      0.00000     0.77105    0.00815     0.77920
      H   14    0.18196      0.00000     0.81295    0.00509     0.81804
      C   15   -0.10480      1.99889     4.08116    0.02474     6.10480
      H   16    0.18093      0.00000     0.81373    0.00535     0.81907
      C   17    0.76651      1.99938     3.15975    0.07436     5.23349
      C   18   -0.16804      1.99895     4.15020    0.01889     6.16804
      H   19    0.18327      0.00000     0.81291    0.00382     0.81673
      H   20    0.18367      0.00000     0.81284    0.00349     0.81633
      C   21   -0.00706      1.99903     3.99185    0.01618     6.00706
      C   22   -0.16863      1.99897     4.15412    0.01554     6.16863
      H   23    0.17662      0.00000     0.82044    0.00294     0.82338
      C   24   -0.15524      1.99898     4.13946    0.01680     6.15524
      H   25    0.19363      0.00000     0.80245    0.00392     0.80637
      C   26    0.05048      1.99881     3.92917    0.02155     5.94952
      C   27   -0.15511      1.99898     4.13926    0.01686     6.15511
      H   28    0.19575      0.00000     0.80051    0.00375     0.80425
      C   29   -0.16871      1.99897     4.15377    0.01597     6.16871
      H   30    0.17490      0.00000     0.82167    0.00343     0.82510
      O   31   -0.66010      1.99965     6.64424    0.01621     8.66010
      H   32    0.42140      0.00000     0.57170    0.00690     0.57860
      C   33    0.32064      1.99867     3.65875    0.02194     5.67936
      C   34   -0.11392      1.99898     4.09919    0.01575     6.11392
      H   35    0.19410      0.00000     0.80237    0.00353     0.80590
      C   36   -0.23060      1.99897     4.21546    0.01617     6.23060
      H   37    0.18079      0.00000     0.81580    0.00341     0.81921
      O   38   -0.75672      1.99972     6.74673    0.01027     8.75672
 =======================================================================
   * Total *   -1.00000     45.98088   119.47022    0.54890   166.00000

 ******   29 imaginary frequencies (negative Signs) ******

                      1                      2                      3
                      A                      A                      A
 Frequencies --  -2073.6849             -1585.5006             -1453.0826
 Red. masses --      1.0677                 1.0796                 1.0692
 Frc consts  --      2.7050                 1.5989                 1.3301
 IR Inten    --    113.6946               203.6952                61.3330

                      4                      5                      6
                      A                      A                      A
 Frequencies --  -1421.0342             -1416.8392             -1383.1891
 Red. masses --      1.0688                 1.0494                 1.0494
 Frc consts  --      1.2716                 1.2412                 1.1829
 IR Inten    --     46.4496                 4.2975                 0.6801

                      7                      8                      9
                      A                      A                      A
 Frequencies --  -1275.7340             -1269.0224             -1238.6601
 Red. masses --      1.0308                 1.0416                 1.0213
 Frc consts  --      0.9884                 0.9883                 0.9233
 IR Inten    --      2.6831                 0.5520                 0.0606

                     10                     11                     12
                      A                      A                      A
 Frequencies --  -1221.0011             -1100.1246             -1059.8551
 Red. masses --      1.0419                 1.0233                 1.0307
 Frc consts  --      0.9152                 0.7297                 0.6822
 IR Inten    --      0.2776                 2.0821                 0.7231

                     13                     14                     15
                      A                      A                      A
 Frequencies --   -937.7539              -923.0762              -919.6456
 Red. masses --      1.0810                 1.0947                 1.1170
 Frc consts  --      0.5601                 0.5496                 0.5566
 IR Inten    --      7.2903                 1.5705                 2.6746

                     16                     17                     18
                      A                      A                      A
 Frequencies --   -917.1384              -831.7713              -799.4866
 Red. masses --      1.0523                 1.0974                 1.0890
 Frc consts  --      0.5215                 0.4473                 0.4101
 IR Inten    --     16.6693                 0.7178                 7.5657

                     19                     20                     21
                      A                      A                      A
 Frequencies --   -736.4183              -710.0397              -501.8137
 Red. masses --      1.0429                 1.0546                 1.3644
 Frc consts  --      0.3332                 0.3133                 0.2024
 IR Inten    --      6.1703                14.4065                 5.0580

                     22                     23                     24
                      A                      A                      A
 Frequencies --   -443.4848              -426.5241              -347.0918
 Red. masses --      1.5621                 1.5085                 1.5476
 Frc consts  --      0.1810                 0.1617                 0.1098
 IR Inten    --     21.8491                 4.3463                 3.7074

                     25                     26                     27
                      A                      A                      A
 Frequencies --   -259.4403              -208.7094              -143.3315
 Red. masses --      1.6710                 1.6792                 4.4321
 Frc consts  --      0.0663                 0.0431                 0.0536
 IR Inten    --     57.7776                21.4483                 0.6500

                     28                     29                     30
                      A                      A                      A
 Frequencies --   -103.9888               -84.6283                62.4843
 Red. masses --     11.0485                14.7822                 9.4406
 Frc consts  --      0.0704                 0.0624                 0.0217
 IR Inten    --      1.9337                 0.1573                 4.7789

                     31                     32                     33
                      A                      A                      A
 Frequencies --    128.2734               146.7625               162.5250
 Red. masses --      8.5793                 8.4948                 6.2951
 Frc consts  --      0.0832                 0.1078                 0.0980
 IR Inten    --     24.0268                 0.8872                 1.7164

                     34                     35                     36
                      A                      A                      A
 Frequencies --    177.3515               179.5447               203.5269
 Red. masses --      7.6289                 8.3355                 6.6678
 Frc consts  --      0.1414                 0.1583                 0.1627
 IR Inten    --     17.6095                 1.8902                 2.9776

                     37                     38                     39
                      A                      A                      A
 Frequencies --    250.8609               321.8341               351.8560
 Red. masses --      7.5125                 3.7366                 6.6094
 Frc consts  --      0.2785                 0.2280                 0.4821
 IR Inten    --      7.1851                 1.2811                 3.2277

                     40                     41                     42
                      A                      A                      A
 Frequencies --    390.5215               432.2326               441.6081
 Red. masses --      4.5297                 5.3936                 4.7319
 Frc consts  --      0.4070                 0.5937                 0.5437
 IR Inten    --     14.2087                 3.8085                 3.4122

                     43                     44                     45
                      A                      A                      A
 Frequencies --    459.1817               499.6802               506.8881
 Red. masses --      2.6428                 2.6453                 3.6227
 Frc consts  --      0.3283                 0.3891                 0.5484
 IR Inten    --      3.6187                10.2782                 4.1776

                     46                     47                     48
                      A                      A                      A
 Frequencies --    530.5906               534.8418               538.8409
 Red. masses --      5.3141                10.1250                 4.8884
 Frc consts  --      0.8815                 1.7065                 0.8363
 IR Inten    --      1.5506                 0.3814                 4.1130

                     49                     50                     51
                      A                      A                      A
 Frequencies --    563.3615               579.7686               624.6952
 Red. masses --      6.3183                 6.4591                 5.7175
 Frc consts  --      1.1815                 1.2792                 1.3146
 IR Inten    --      1.0316                 3.4945                 9.7214

                     52                     53                     54
                      A                      A                      A
 Frequencies --    652.7096               678.4868               686.3939
 Red. masses --      6.5928                 5.1296                 4.9798
 Frc consts  --      1.6548                 1.3913                 1.3823
 IR Inten    --     12.5988                 1.4635                 4.3425

                     55                     56                     57
                      A                      A                      A
 Frequencies --    702.4243               724.6165               737.4183
 Red. masses --      4.4051                 6.4558                 7.3061
 Frc consts  --      1.2806                 1.9972                 2.3408
 IR Inten    --     33.6888                 5.0382                 0.5223

                     58                     59                     60
                      A                      A                      A
 Frequencies --    774.2642               781.2348               796.0358
 Red. masses --      5.1750                 5.6136                 6.5692
 Frc consts  --      1.8278                 2.0186                 2.4526
 IR Inten    --     20.0250                 3.7798                15.4984

                     61                     62                     63
                      A                      A                      A
 Frequencies --    808.2464               826.5420               835.0287
 Red. masses --      9.1212                 7.7657                 5.3335
 Frc consts  --      3.5107                 3.1258                 2.1911
 IR Inten    --     56.7483                 1.1063                 3.0431

                     64                     65                     66
                      A                      A                      A
 Frequencies --    874.9334               879.9380               898.6034
 Red. masses --      4.2088                 8.2573                 4.4744
 Frc consts  --      1.8983                 3.7670                 2.1288
 IR Inten    --      8.6800                44.0863                24.9975

                     67                     68                     69
                      A                      A                      A
 Frequencies --    942.3580               948.4764               963.2046
 Red. masses --      7.0616                 3.4986                 1.6276
 Frc consts  --      3.6947                 1.8544                 0.8897
 IR Inten    --      7.2593                19.6899                14.8322

                     70                     71                     72
                      A                      A                      A
 Frequencies --    976.8830              1029.6887              1094.2818
 Red. masses --      1.2802                 2.5682                 3.2782
 Frc consts  --      0.7198                 1.6043                 2.3129
 IR Inten    --      9.4497                49.1742                24.1720

                     73                     74                     75
                      A                      A                      A
 Frequencies --   1117.0737              1120.5379              1139.4732
 Red. masses --      4.0341                 6.5581                 4.4427
 Frc consts  --      2.9660                 4.8515                 3.3986
 IR Inten    --     10.1236                31.5590                31.3700

                     76                     77                     78
                      A                      A                      A
 Frequencies --   1177.8523              1261.3105              1300.4788
 Red. masses --      6.7741                 4.9435                 2.8750
 Frc consts  --      5.5371                 4.6337                 2.8648
 IR Inten    --     29.2381               129.9049                49.9418

                     79                     80                     81
                      A                      A                      A
 Frequencies --   1308.0074              1343.4317              1369.2031
 Red. masses --      2.3267                 8.8992                 7.3261
 Frc consts  --      2.3454                 9.4631                 8.0921
 IR Inten    --     22.9529                 3.0920               254.4490

                     82                     83                     84
                      A                      A                      A
 Frequencies --   1415.4595              1466.7084              1473.5227
 Red. masses --      8.7539                10.4903                13.0106
 Frc consts  --     10.3335                13.2961                16.6441
 IR Inten    --      5.3552               580.1140              1396.4405

                     85                     86                     87
                      A                      A                      A
 Frequencies --   1491.3498              1509.3812              1586.3362
 Red. masses --      8.7971                 8.3672                 9.4133
 Frc consts  --     11.5278                11.2312                13.9568
 IR Inten    --     84.2139                11.6662               104.2328

                     88                     89                     90
                      A                      A                      A
 Frequencies --   1655.8513              1660.5532              1730.1862
 Red. masses --     10.9773                11.2535                11.1274
 Frc consts  --     17.7333                18.2828                19.6259
 IR Inten    --    135.5004                57.7890                92.2704

                     91                     92                     93
                      A                      A                      A
 Frequencies --   1789.3158              1793.1786              1795.8319
 Red. masses --     12.7915                12.9633                 9.9457
 Frc consts  --     24.1294                24.5592                18.8980
 IR Inten    --    143.1186               545.5044                13.8089

                     94                     95                     96
                      A                      A                      A
 Frequencies --   4031.9267              4357.3044              4418.3477
 Red. masses --      1.0749                 1.0865                 1.0609
 Frc consts  --     10.2958                12.1540                12.2029
 IR Inten    --     20.4004                12.2751                 3.1679

                     97                     98                     99
                      A                      A                      A
 Frequencies --   4424.3707              4532.9601              4547.9281
 Red. masses --      1.0602                 1.1070                 1.1095
 Frc consts  --     12.2272                13.4013                13.5214
 IR Inten    --     21.0923                 3.0501                 3.5259

                    100                    101                    102
                      A                      A                      A
 Frequencies --   5014.8373              5034.9998              5036.7186
 Red. masses --      1.0885                 1.0885                 1.0882
 Frc consts  --     16.1285                16.2588                16.2644
 IR Inten    --      1.3085                 1.7719                 3.8656

                    103                    104                    105
                      A                      A                      A
 Frequencies --   5044.2451              5047.1106              5047.9043
 Red. masses --      1.0896                 1.0909                 1.0887
 Frc consts  --     16.3342                16.3725                16.3446
 IR Inten    --      1.9075                 2.0919                 3.3695

                    106                    107                    108
                      A                      A                      A
 Frequencies --   5053.3844              5056.0766              6321.2020
 Red. masses --      1.0905                 1.0906                 1.0669
 Frc consts  --     16.4079                16.4260                25.1167
 IR Inten    --      8.2418                 3.0583                87.9984

 - Thermochemistry -
 -------------------
 Temperature   298.150 Kelvin.  Pressure   1.00000 Atm.
 Atom     1 has atomic number  7 and mass  14.00307

 Molecular mass:   315.09810 amu.
 Principal axes and moments of inertia in atomic units:
                           1         2         3
     Eigenvalues --  5571.51961********************
           X            0.99978   0.02105  -0.00126
           Y           -0.02105   0.99978   0.00014
           Z            0.00126  -0.00012   1.00000
 This molecule is an asymmetric top.
 Rotational symmetry number  1.
 Warning -- assumption of classical behavior for rotation
           may cause significant error
 Rotational temperatures (Kelvin)      0.01555     0.00808     0.00601
 Rotational constants (GHZ):           0.32392     0.16841     0.12532
   29 imaginary frequencies ignored.
 Zero-point vibrational energy     772628.3 (Joules/Mol)
                                  184.66259 (Kcal/Mol)
 Warning -- explicit consideration of  21 degrees of freedom as
           vibrations may cause significant error
 Vibrational temperatures:     89.90   184.56   211.16   233.84   255.17
          (Kelvin)            258.32   292.83   360.93   463.05   506.24
                              561.87   621.89   635.38   660.66   718.93
                              729.30   763.40   769.52   775.27   810.55
                              834.16   898.80   939.10   976.19   987.57
                             1010.63  1042.56  1060.98  1113.99  1124.02
                             1145.32  1162.89  1189.21  1201.42  1258.83
                             1266.03  1292.89  1355.84  1364.65  1385.84
                             1405.52  1481.49  1574.43  1607.22  1612.20
                             1639.45  1694.67  1814.74  1871.10  1881.93
                             1932.90  1969.98  2036.53  2110.27  2120.07
                             2145.72  2171.66  2282.38  2382.40  2389.17
                             2489.35  2574.43  2579.98  2583.80  5801.04
                             6269.19  6357.02  6365.68  6521.92  6543.45
                             7215.23  7244.24  7246.71  7257.54  7261.67
                             7262.81  7270.69  7274.57  9094.80

 Zero-point correction=                           0.294279 (Hartree/Particle)
 Thermal correction to Energy=                    0.307261
 Thermal correction to Enthalpy=                  0.308205
 Thermal correction to Gibbs Free Energy=         0.253914
 Sum of electronic and zero-point Energies=          -1101.720507
 Sum of electronic and thermal Energies=             -1101.707525
 Sum of electronic and thermal Enthalpies=           -1101.706581
 Sum of electronic and thermal Free Energies=        -1101.760872

                     E (Thermal)             CV                S
                      KCal/Mol        Cal/Mol-Kelvin    Cal/Mol-Kelvin
 Total                  192.809             54.130            114.265
 Electronic               0.000              0.000              0.000
 Translational            0.889              2.981             43.139
 Rotational               0.889              2.981             35.107
 Vibrational            191.032             48.168             36.019
 Vibration     1          0.597              1.972              4.377
 Vibration     2          0.611              1.925              2.972
 Vibration     3          0.617              1.906              2.714
 Vibration     4          0.623              1.888              2.520
 Vibration     5          0.628              1.870              2.356
 Vibration     6          0.629              1.867              2.333
 Vibration     7          0.639              1.835              2.101
 Vibration     8          0.663              1.761              1.725
 Vibration     9          0.707              1.632              1.301
 Vibration    10          0.728              1.571              1.158
 Vibration    11          0.758              1.490              0.998
 Vibration    12          0.793              1.400              0.851
 Vibration    13          0.801              1.379              0.822
 Vibration    14          0.817              1.341              0.768
 Vibration    15          0.855              1.251              0.659
 Vibration    16          0.862              1.235              0.641
 Vibration    17          0.886              1.182              0.586
 Vibration    18          0.890              1.173              0.576
 Vibration    19          0.894              1.164              0.568
 Vibration    20          0.919              1.111              0.517
 Vibration    21          0.936              1.075              0.486

 Normal termination of Gaussian 16 at Mon Mar  6 11:40:52 2023.
