 Gaussian 16, Revision C.01,
 Gaussian 16:  ES64L-G16RevC.01  3-Jul-2019

 ----------------------------------------------------------------------
 #p pop=(regular,nbo,savenbos) freq=noraman def2svp empiricaldispersion
 =gd3bj output=wfx pbe1pbe
 ----------------------------------------------------------------------

 ----------------------------------------
 GUBCIP_Complex_0_Ligand_1_ON_Cu_oriented
 ----------------------------------------
 Symbolic Z-matrix:
 Charge = -1 Multiplicity = 1

                         Standard orientation:
 ---------------------------------------------------------------------
 Center     Atomic      Atomic             Coordinates (Angstroms)
 Number     Number       Type             X           Y           Z
 ---------------------------------------------------------------------
      1          6           0        2.096734    0.202926    0.013830
      2          6           0        0.676873   -0.160364    0.460325
      3          1           0        0.694694   -0.341611    1.443830
      4          6           0        0.074656   -1.377456   -0.240340
      5          1           0        0.373687   -2.219307    0.185735
      6          1           0        0.319407   -1.394980   -1.199544
      7         16           0       -1.724890   -1.132439   -0.024584
      8          6           0       -1.444345    0.611038    0.038968
      9          7           0       -0.212279    0.979582    0.219778
     10          7           0       -2.467429    1.455731   -0.098513
     11          1           0       -2.327345    2.324019   -0.068101
     12          1           0       -3.281361    1.144948   -0.219163
     13          8           0        2.959573   -0.691757   -0.010868
     14          8           0        2.309628    1.429493   -0.268503
 ---------------------------------------------------------------------

 SCF Done:  E(RPBE1PBE) =  -812.531885000     A.U. after   16 cycles

 The electronic state is 1-A.
 Alpha  occ. eigenvalues --  -88.87311 -18.92719 -18.91425 -14.27305 -14.20830
 Alpha  occ. eigenvalues --  -10.17960 -10.10352 -10.09420 -10.08257  -7.87558
 Alpha  occ. eigenvalues --   -5.81757  -5.81424  -5.80823  -0.87403  -0.81830
 Alpha  occ. eigenvalues --   -0.77900  -0.71499  -0.66064  -0.60957  -0.51498
 Alpha  occ. eigenvalues --   -0.49103  -0.45955  -0.37049  -0.34367  -0.31587
 Alpha  occ. eigenvalues --   -0.28851  -0.27313  -0.26711  -0.23923  -0.21226
 Alpha  occ. eigenvalues --   -0.18259  -0.16770  -0.14232  -0.11406  -0.09094
 Alpha  occ. eigenvalues --   -0.03492  -0.03256  -0.01126
 Alpha virt. eigenvalues --    0.15670   0.17900   0.20280   0.23327   0.25606
 Alpha virt. eigenvalues --    0.27423   0.28247   0.28365   0.30841   0.37319
 Alpha virt. eigenvalues --    0.39822   0.43802   0.45226   0.47881   0.50799

 Mulliken charges:
               1
     1  C    0.133536
     2  C    0.028205
     3  H   -0.022387
     4  C    0.054252
     5  H    0.006271
     6  H    0.026568
     7  S   -0.186277
     8  C   -0.079079
     9  N   -0.222702
    10  N    0.060025
    11  H    0.050675
    12  H    0.040181
    13  O   -0.441573
    14  O   -0.447695
 Sum of Mulliken charges =  -1.00000

 Dipole moment (field-independent basis, Debye):
    X=            -11.3727    Y=             -1.5746    Z=              0.5062  Tot=             11.4923
 Quadrupole moment (field-independent basis, Debye-Ang):
   XX=            -90.7669   YY=            -67.0667   ZZ=            -60.4866
   XY=            -10.3288   XZ=              2.9036   YZ=              0.8027

  Exact polarizability:      92.125      -2.015      75.258       1.848      -0.584      43.716
 Approx polarizability:     137.738       2.184     125.347       3.722      -1.898      65.852

 Summary of Natural Population Analysis:

                                       Natural Population
                Natural  -----------------------------------------------
    Atom  No    Charge         Core      Valence    Rydberg      Total
 -----------------------------------------------------------------------
      C    1    0.78475      1.99942     3.14370    0.07213     5.21525
      C    2   -0.13043      1.99895     4.10529    0.02620     6.13043
      H    3    0.18562      0.00000     0.80748    0.00690     0.81438
      C    4   -0.43558      1.99904     4.41703    0.01951     6.43558
      H    5    0.20724      0.00000     0.78767    0.00509     0.79276
      H    6    0.19805      0.00000     0.79711    0.00485     0.80195
      S    7    0.04528      9.99908     5.92387    0.03177    15.95472
      C    8    0.30892      1.99922     3.65281    0.03905     5.69108
      N    9   -0.54605      1.99924     5.52669    0.02011     7.54605
      N   10   -0.74405      1.99922     5.72445    0.02038     7.74405
      H   11    0.35352      0.00000     0.64052    0.00596     0.64648
      H   12    0.34003      0.00000     0.65544    0.00453     0.65997
      O   13   -0.79290      1.99974     6.78344    0.00972     8.79290
      O   14   -0.77440      1.99977     6.76611    0.00853     8.77440
 =======================================================================
   * Total *   -1.00000     25.99369    49.73160    0.27471    76.00000

 ******    8 imaginary frequencies (negative Signs) ******

                      1                      2                      3
                      A                      A                      A
 Frequencies --  -1786.9202             -1621.8909             -1310.7660
 Red. masses --      1.1580                 1.0140                 1.0464
 Frc consts  --      2.1786                 1.5716                 1.0593
 IR Inten    --    229.8850                 2.9841                 0.4509

                      4                      5                      6
                      A                      A                      A
 Frequencies --   -880.2354              -415.4370              -217.9042
 Red. masses --      1.0606                 1.2698                 2.5255
 Frc consts  --      0.4842                 0.1291                 0.0707
 IR Inten    --      3.2653                 4.1849                 3.2804

                      7                      8                      9
                      A                      A                      A
 Frequencies --   -210.2695               -51.6692               148.4068
 Red. masses --      1.8462                 6.4145                 2.9322
 Frc consts  --      0.0481                 0.0101                 0.0380
 IR Inten    --     17.6557                 1.7372                 1.0312

                     10                     11                     12
                      A                      A                      A
 Frequencies --    282.4237               394.4875               457.1612
 Red. masses --      5.7804                 7.0148                 2.5181
 Frc consts  --      0.2717                 0.6432                 0.3101
 IR Inten    --      3.6530                 7.3211                10.9535

                     13                     14                     15
                      A                      A                      A
 Frequencies --    474.8827               535.5712               599.8243
 Red. masses --      6.5700                 3.7367                 3.9668
 Frc consts  --      0.8730                 0.6315                 0.8409
 IR Inten    --      3.9523                 6.4318                13.5243

                     16                     17                     18
                      A                      A                      A
 Frequencies --    621.7917               631.2346               699.6673
 Red. masses --      1.3793                 7.0278                 4.9003
 Frc consts  --      0.3142                 1.6499                 1.4134
 IR Inten    --     51.2875                 2.6959                27.8644

                     19                     20                     21
                      A                      A                      A
 Frequencies --    772.4257               811.2454               830.8151
 Red. masses --      6.2508                12.3208                 1.8859
 Frc consts  --      2.1973                 4.7774                 0.7670
 IR Inten    --     11.8108                42.8054                14.7422

                     22                     23                     24
                      A                      A                      A
 Frequencies --    903.9291               911.5735              1019.9188
 Red. masses --      2.3713                 5.4575                 4.6609
 Frc consts  --      1.1416                 2.6720                 2.8566
 IR Inten    --      8.4776                 3.0962                 4.4021

                     25                     26                     27
                      A                      A                      A
 Frequencies --   1081.0947              1112.1316              1146.3171
 Red. masses --      1.2493                 5.9517                 5.6290
 Frc consts  --      0.8603                 4.3372                 4.3580
 IR Inten    --     12.7222                 7.9444                49.1850

                     28                     29                     30
                      A                      A                      A
 Frequencies --   1385.0198              1407.8940              1717.4505
 Red. masses --     10.7244                12.8083                11.1076
 Frc consts  --     12.1209                14.9582                19.3036
 IR Inten    --    191.7127               233.3203               291.5414

                     31                     32                     33
                      A                      A                      A
 Frequencies --   1733.3280              4118.4131              4205.6316
 Red. masses --     12.9046                 1.0863                 1.0582
 Frc consts  --     22.8431                10.8554                11.0281
 IR Inten    --    465.8505                24.9602                 5.6027

                     34                     35                     36
                      A                      A                      A
 Frequencies --   4327.5415              5423.5426              5628.9771
 Red. masses --      1.1109                 1.0420                 1.1068
 Frc consts  --     12.2572                18.0593                20.6618
 IR Inten    --      0.7510                68.0703                53.0261

 - Thermochemistry -
 -------------------
 Temperature   298.150 Kelvin.  Pressure   1.00000 Atm.
 Atom     1 has atomic number  6 and mass  12.00000

 Molecular mass:   145.00717 amu.
 Principal axes and moments of inertia in atomic units:
                           1         2         3
     Eigenvalues --   624.444631842.351312403.39908
           X            0.99952  -0.03083   0.00307
           Y            0.03083   0.99952   0.00204
           Z           -0.00313  -0.00195   0.99999
 This molecule is an asymmetric top.
 Rotational symmetry number  1.
 Warning -- assumption of classical behavior for rotation
           may cause significant error
 Rotational temperatures (Kelvin)      0.13871     0.04701     0.03604
 Rotational constants (GHZ):           2.89015     0.97959     0.75091
    8 imaginary frequencies ignored.
 Zero-point vibrational energy     259486.2 (Joules/Mol)
                                   62.01868 (Kcal/Mol)
 Warning -- explicit consideration of   7 degrees of freedom as
           vibrations may cause significant error
 Vibrational temperatures:    213.52   406.34   567.58   657.75   683.25
          (Kelvin)            770.57   863.01   894.62   908.21  1006.67
                             1111.35  1167.20  1195.36  1300.55  1311.55
                             1467.44  1555.45  1600.11  1649.29  1992.73
                             2025.65  2471.03  2493.87  5925.48  6050.97
                             6226.37  7803.27  8098.84

 Zero-point correction=                           0.098833 (Hartree/Particle)
 Thermal correction to Energy=                    0.104795
 Thermal correction to Enthalpy=                  0.105739
 Thermal correction to Gibbs Free Energy=         0.067605
 Sum of electronic and zero-point Energies=           -812.433052
 Sum of electronic and thermal Energies=              -812.427090
 Sum of electronic and thermal Enthalpies=            -812.426146
 Sum of electronic and thermal Free Energies=         -812.464280

                     E (Thermal)             CV                S
                      KCal/Mol        Cal/Mol-Kelvin    Cal/Mol-Kelvin
 Total                   65.760             23.047             80.261
 Electronic               0.000              0.000              0.000
 Translational            0.889              2.981             40.826
 Rotational               0.889              2.981             29.404
 Vibrational             63.983             17.085             10.031
 Vibration     1          0.618              1.904              2.693
 Vibration     2          0.681              1.706              1.519
 Vibration     3          0.761              1.482              0.983
 Vibration     4          0.815              1.345              0.774
 Vibration     5          0.832              1.306              0.724
 Vibration     6          0.891              1.171              0.575
 Vibration     7          0.958              1.032              0.450

 Normal termination of Gaussian 16 at Mon Mar  6 10:26:34 2023.
