 Gaussian 16, Revision C.01,
 Gaussian 16:  ES64L-G16RevC.01  3-Jul-2019

 ----------------------------------------------------------------------
 #p pop=(regular,nbo,savenbos) freq=noraman def2svp empiricaldispersion
 =gd3bj output=wfx pbe1pbe
 ----------------------------------------------------------------------

 ----------------------------------------
 GUXMAN_Complex_7_Ligand_0_NN_Cu_oriented
 ----------------------------------------
 Symbolic Z-matrix:
 Charge = -1 Multiplicity = 1

                         Standard orientation:
 ---------------------------------------------------------------------
 Center     Atomic      Atomic             Coordinates (Angstroms)
 Number     Number       Type             X           Y           Z
 ---------------------------------------------------------------------
      1         16           0        1.612185   -1.556962    0.236862
      2          8           0        2.094261   -2.504623   -0.736835
      3          8           0        2.053428   -1.726510    1.592216
      4          7           0       -2.182733   -0.985022   -1.141249
      5          7           0        0.037819   -1.572644    0.099823
      6          6           0       -3.260483   -0.745629   -1.822996
      7          6           0       -4.233636    0.181917   -1.417369
      8          6           0       -4.037755    0.868959   -0.258331
      9          6           0       -2.886526    0.666204    0.502048
     10          6           0       -2.567659    1.354817    1.680512
     11          6           0       -1.402099    1.096425    2.331402
     12          6           0       -0.497449    0.130947    1.871622
     13          6           0       -0.759310   -0.588598    0.704097
     14          6           0       -1.959880   -0.296939    0.022914
     15          6           0        2.135113    0.053771   -0.264501
     16          6           0        2.629439    0.955164    0.674081
     17          6           0        2.995096    2.229889    0.250752
     18          6           0        2.844391    2.591415   -1.080275
     19          6           0        2.363069    1.696288   -1.992149
     20          6           0        1.992994    0.428952   -1.582821
     21          1           0       -3.393575   -1.210865   -2.628240
     22          1           0       -5.008221    0.323910   -1.934646
     23          1           0       -4.683521    1.487621    0.031490
     24          1           0       -3.164189    1.992957    2.026852
     25          1           0       -1.197487    1.573467    3.113540
     26          1           0        0.299885   -0.022005    2.343245
     27          1           0        2.706861    0.710673    1.579072
     28          1           0        3.350895    2.842251    0.869403
     29          1           0        3.070713    3.462574   -1.354706
     30          1           0        2.289904    1.938909   -2.898558
     31          1           0        1.634851   -0.176866   -2.204216
 ---------------------------------------------------------------------

 SCF Done:  E(RPBE1PBE) =  -1234.32438791     A.U. after   16 cycles

 The electronic state is 1-A.
 Alpha  occ. eigenvalues --  -89.04544 -19.01459 -19.00891 -14.25133 -14.18714
 Alpha  occ. eigenvalues --  -10.12959 -10.12857 -10.12694 -10.12367 -10.11884
 Alpha  occ. eigenvalues --  -10.11802 -10.11716 -10.11611 -10.11399 -10.11362
 Alpha  occ. eigenvalues --  -10.11060 -10.11017 -10.09716 -10.08636 -10.07635
 Alpha  occ. eigenvalues --   -8.01370  -5.95558  -5.95494  -5.95436  -0.96963
 Alpha  occ. eigenvalues --   -0.84312  -0.84037  -0.77815  -0.76085  -0.73497
 Alpha  occ. eigenvalues --   -0.70131  -0.67425  -0.67178  -0.65379  -0.62187
 Alpha  occ. eigenvalues --   -0.55671  -0.54560  -0.53870  -0.53572  -0.50789
 Alpha  occ. eigenvalues --   -0.47775  -0.44899  -0.44319  -0.42104  -0.41693
 Alpha  occ. eigenvalues --   -0.38370  -0.36912  -0.36458  -0.35738  -0.34971
 Alpha  occ. eigenvalues --   -0.33638  -0.32534  -0.32150  -0.31231  -0.30824
 Alpha  occ. eigenvalues --   -0.29273  -0.28336  -0.27869  -0.27147  -0.26493
 Alpha  occ. eigenvalues --   -0.24740  -0.23785  -0.21064  -0.19016  -0.17847
 Alpha  occ. eigenvalues --   -0.17095  -0.16178  -0.14979  -0.14363  -0.14112
 Alpha  occ. eigenvalues --   -0.13789  -0.12993  -0.08715  -0.05697
 Alpha virt. eigenvalues --    0.07793   0.09701   0.10290   0.11362   0.16174
 Alpha virt. eigenvalues --    0.19492   0.19771   0.21713   0.22185   0.22725
 Alpha virt. eigenvalues --    0.23445   0.24772   0.25397   0.25963   0.27733

 Mulliken charges:
               1
     1  S    0.854485
     2  O   -0.520559
     3  O   -0.518845
     4  N   -0.110745
     5  N   -0.414327
     6  C    0.145136
     7  C    0.019180
     8  C    0.115996
     9  C    0.057211
    10  C    0.016509
    11  C    0.130120
    12  C   -0.001690
    13  C    0.134664
    14  C   -0.045962
    15  C   -0.097874
    16  C    0.108541
    17  C    0.075003
    18  C    0.084313
    19  C    0.074673
    20  C    0.144422
    21  H   -0.096836
    22  H   -0.110030
    23  H   -0.128878
    24  H   -0.149380
    25  H   -0.118630
    26  H   -0.137170
    27  H   -0.100283
    28  H   -0.105709
    29  H   -0.106015
    30  H   -0.102534
    31  H   -0.094786
 Sum of Mulliken charges =  -1.00000

 Dipole moment (field-independent basis, Debye):
    X=             -2.8307    Y=              8.1540    Z=             -0.9659  Tot=              8.6852
 Quadrupole moment (field-independent basis, Debye-Ang):
   XX=           -140.9657   YY=           -142.8688   ZZ=           -126.2080
   XY=             11.1518   XZ=              0.9491   YZ=              0.6695

  Exact polarizability:     216.390      -5.913     162.322      19.412      18.777     179.097
 Approx polarizability:     304.043     -26.319     290.499      48.242      54.234     329.173

 Summary of Natural Population Analysis:

                                       Natural Population
                Natural  -----------------------------------------------
    Atom  No    Charge         Core      Valence    Rydberg      Total
 -----------------------------------------------------------------------
      S    1    2.31631      9.99790     3.44625    0.23954    13.68369
      O    2   -0.97880      1.99977     6.97049    0.00854     8.97880
      O    3   -1.01360      1.99976     7.00568    0.00816     9.01360
      N    4   -0.42799      1.99931     5.41057    0.01811     7.42799
      N    5   -0.92949      1.99928     5.91464    0.01557     7.92949
      C    6    0.08196      1.99914     3.89615    0.02275     5.91804
      C    7   -0.23801      1.99912     4.22486    0.01403     6.23801
      C    8   -0.15068      1.99904     4.13589    0.01576     6.15068
      C    9   -0.08438      1.99895     4.06979    0.01563     6.08438
      C   10   -0.24907      1.99904     4.23280    0.01723     6.24907
      C   11   -0.15505      1.99911     4.14157    0.01438     6.15505
      C   12   -0.25693      1.99899     4.24039    0.01755     6.25693
      C   13    0.19658      1.99889     3.77761    0.02693     5.80342
      C   14    0.16872      1.99880     3.80708    0.02540     5.83128
      C   15   -0.28425      1.99885     4.25664    0.02877     6.28425
      C   16   -0.16168      1.99899     4.14452    0.01816     6.16168
      C   17   -0.18117      1.99911     4.16751    0.01456     6.18117
      C   18   -0.19116      1.99911     4.17778    0.01427     6.19116
      C   19   -0.18475      1.99909     4.17103    0.01463     6.18475
      C   20   -0.14251      1.99898     4.12525    0.01828     6.14251
      H   21    0.14084      0.00000     0.85577    0.00339     0.85916
      H   22    0.16515      0.00000     0.83137    0.00348     0.83485
      H   23    0.16604      0.00000     0.83049    0.00346     0.83396
      H   24    0.16393      0.00000     0.83245    0.00362     0.83607
      H   25    0.16263      0.00000     0.83407    0.00329     0.83737
      H   26    0.18712      0.00000     0.80819    0.00469     0.81288
      H   27    0.19184      0.00000     0.80428    0.00388     0.80816
      H   28    0.16539      0.00000     0.83153    0.00308     0.83461
      H   29    0.16397      0.00000     0.83277    0.00326     0.83603
      H   30    0.16817      0.00000     0.82867    0.00316     0.83183
      H   31    0.19087      0.00000     0.80462    0.00451     0.80913
 =======================================================================
   * Total *   -1.00000     47.98122    99.41068    0.60810   148.00000

 ******   22 imaginary frequencies (negative Signs) ******

                      1                      2                      3
                      A                      A                      A
 Frequencies --  -1369.2750             -1363.9209             -1337.6611
 Red. masses --      1.0826                 1.0757                 1.0756
 Frc consts  --      1.1959                 1.1791                 1.1340
 IR Inten    --     63.4731                26.4586                52.1889

                      4                      5                      6
                      A                      A                      A
 Frequencies --  -1271.9416             -1255.7031             -1238.7364
 Red. masses --      1.0435                 1.0404                 1.0320
 Frc consts  --      0.9946                 0.9665                 0.9331
 IR Inten    --      0.1156                 3.0520                 0.1863

                      7                      8                      9
                      A                      A                      A
 Frequencies --  -1208.6897             -1143.5492             -1126.9791
 Red. masses --      1.0308                 1.0168                 1.0295
 Frc consts  --      0.8872                 0.7834                 0.7704
 IR Inten    --      0.2988                 0.2574                 2.5034

                     10                     11                     12
                      A                      A                      A
 Frequencies --  -1116.3574             -1064.8699              -817.0228
 Red. masses --      1.0308                 1.0354                 1.1053
 Frc consts  --      0.7569                 0.6917                 0.4347
 IR Inten    --      0.4438                 0.1359                 0.2624

                     13                     14                     15
                      A                      A                      A
 Frequencies --   -812.7115              -801.8906              -781.7858
 Red. masses --      1.0865                 1.1133                 1.1599
 Frc consts  --      0.4228                 0.4218                 0.4177
 IR Inten    --      2.2015                 0.6722                 2.5841

                     16                     17                     18
                      A                      A                      A
 Frequencies --   -723.6988              -707.4844              -671.8925
 Red. masses --      1.1369                 1.1530                 1.1333
 Frc consts  --      0.3508                 0.3400                 0.3014
 IR Inten    --      9.4158                 7.9665                 9.8320

                     19                     20                     21
                      A                      A                      A
 Frequencies --   -620.8784              -597.0544              -559.7945
 Red. masses --      1.1222                 1.1721                 1.0472
 Frc consts  --      0.2549                 0.2462                 0.1933
 IR Inten    --      4.0698                 7.5243                17.2131

                     22                     23                     24
                      A                      A                      A
 Frequencies --   -534.7128                10.1503                53.6569
 Red. masses --      1.2126                 8.3717                 9.2363
 Frc consts  --      0.2043                 0.0005                 0.0157
 IR Inten    --      7.3749                 3.1168                 1.1209

                     25                     26                     27
                      A                      A                      A
 Frequencies --    115.5774               164.0461               187.8350
 Red. masses --      9.9309                11.4528                 9.7579
 Frc consts  --      0.0782                 0.1816                 0.2028
 IR Inten    --      1.9903                 0.4731                 0.5704

                     28                     29                     30
                      A                      A                      A
 Frequencies --    207.9280               251.7131               265.1810
 Red. masses --     11.1305                 9.7211                11.8526
 Frc consts  --      0.2835                 0.3629                 0.4911
 IR Inten    --      0.6374                 0.3699                 1.2324

                     31                     32                     33
                      A                      A                      A
 Frequencies --    280.7876               320.2660               337.3366
 Red. masses --      8.8724                10.2971                10.0046
 Frc consts  --      0.4121                 0.6223                 0.6708
 IR Inten    --      4.7724                 0.3717                 4.5721

                     34                     35                     36
                      A                      A                      A
 Frequencies --    370.6274               418.8979               503.0971
 Red. masses --     10.0402                 9.2783                13.9336
 Frc consts  --      0.8126                 0.9593                 2.0779
 IR Inten    --      2.4379                11.7252                61.2608

                     37                     38                     39
                      A                      A                      A
 Frequencies --    527.2004               543.6177               564.2989
 Red. masses --     11.4111                10.9646                 6.2411
 Frc consts  --      1.8687                 1.9091                 1.1709
 IR Inten    --      0.9294                 0.6323                 9.9810

                     40                     41                     42
                      A                      A                      A
 Frequencies --    591.7547               607.7443               615.2822
 Red. masses --     10.7467                 9.6084                 9.5766
 Frc consts  --      2.2172                 2.0910                 2.1361
 IR Inten    --      9.3590                56.1253                83.5359

                     43                     44                     45
                      A                      A                      A
 Frequencies --    625.5827               654.5639               663.6006
 Red. masses --      5.8340                 4.8286                 7.9601
 Frc consts  --      1.3452                 1.2189                 2.0653
 IR Inten    --     34.2453                22.4587                10.1264

                     46                     47                     48
                      A                      A                      A
 Frequencies --    682.6337               740.1728               751.8489
 Red. masses --      6.3330                 7.5306                 4.2268
 Frc consts  --      1.7387                 2.4308                 1.4078
 IR Inten    --     47.0569                 5.1086                 2.5664

                     49                     50                     51
                      A                      A                      A
 Frequencies --    752.7525               788.0929               790.9795
 Red. masses --      6.4068                 7.0932                 8.9340
 Frc consts  --      2.1389                 2.5957                 3.2933
 IR Inten    --      4.9022                15.3897                18.0042

                     52                     53                     54
                      A                      A                      A
 Frequencies --    843.8748               881.4539               905.2255
 Red. masses --      4.3090                10.8338                 5.6983
 Frc consts  --      1.8079                 4.9594                 2.7511
 IR Inten    --      7.0802                 1.1042                 5.8285

                     55                     56                     57
                      A                      A                      A
 Frequencies --    921.4356               999.9614              1049.5016
 Red. masses --      7.8958                 9.0409                 6.5325
 Frc consts  --      3.9498                 5.3263                 4.2393
 IR Inten    --     66.0277                74.4443                 3.7772

                     58                     59                     60
                      A                      A                      A
 Frequencies --   1141.1120              1177.9095              1227.6115
 Red. masses --      7.8944                 8.0142                10.0868
 Frc consts  --      6.0566                 6.5514                 8.9562
 IR Inten    --      2.4905                79.9514               351.2207

                     61                     62                     63
                      A                      A                      A
 Frequencies --   1264.2881              1316.8322              1344.1581
 Red. masses --     17.6699                 8.2329                 9.9757
 Frc consts  --     16.6409                 8.4113                10.6193
 IR Inten    --    623.1766                 7.9220                89.8137

                     64                     65                     66
                      A                      A                      A
 Frequencies --   1373.7420              1407.6335              1420.8864
 Red. masses --      8.2046                 9.0010                 9.5075
 Frc consts  --      9.1226                10.5080                11.3092
 IR Inten    --      0.4828                15.7683               178.3668

                     67                     68                     69
                      A                      A                      A
 Frequencies --   1441.7654              1444.0734              1455.0764
 Red. masses --     13.9826                 9.9113                11.1788
 Frc consts  --     17.1248                12.1776                13.9450
 IR Inten    --    124.7291               147.1670                96.2489

                     70                     71                     72
                      A                      A                      A
 Frequencies --   1541.1406              1556.7242              1642.7545
 Red. masses --      9.2575                10.2748                10.8838
 Frc consts  --     12.9548                14.6706                17.3052
 IR Inten    --     33.3053                78.6594                31.4196

                     73                     74                     75
                      A                      A                      A
 Frequencies --   1651.7506              1682.6226              1696.6202
 Red. masses --     10.5874                10.2807                10.1643
 Frc consts  --     17.0188                17.1493                17.2384
 IR Inten    --      2.2146                27.8394                 2.6203

                     76                     77                     78
                      A                      A                      A
 Frequencies --   1719.9906              4864.5890              4873.7846
 Red. masses --     11.4473                 1.0881                 1.0865
 Frc consts  --     19.9529                15.1715                15.2064
 IR Inten    --      1.2224                 2.6625                 0.7066

                     79                     80                     81
                      A                      A                      A
 Frequencies --   4886.0298              4890.4362              4892.7384
 Red. masses --      1.0897                 1.0876                 1.0899
 Frc consts  --     15.3281                15.3253                15.3720
 IR Inten    --      4.9999                 1.0441                 8.0446

                     82                     83                     84
                      A                      A                      A
 Frequencies --   4894.0302              4897.7825              4903.7372
 Red. masses --      1.0898                 1.0902                 1.0913
 Frc consts  --     15.3786                15.4077                15.4612
 IR Inten    --      3.6795                14.6422                 3.5979

                     85                     86                     87
                      A                      A                      A
 Frequencies --   4910.3856              4920.1460              4921.9769
 Red. masses --      1.0887                 1.0910                 1.0901
 Frc consts  --     15.4662                15.5606                15.5598
 IR Inten    --      9.8089                 2.1599                 2.5971

 - Thermochemistry -
 -------------------
 Temperature   298.150 Kelvin.  Pressure   1.00000 Atm.
 Atom     1 has atomic number 16 and mass  31.97207

 Molecular mass:   283.05412 amu.
 Principal axes and moments of inertia in atomic units:
                           1         2         3
     Eigenvalues --  3538.559157427.465707884.04996
           X            0.99993   0.01200   0.00192
           Y           -0.01206   0.99914   0.03973
           Z           -0.00145  -0.03975   0.99921
 This molecule is an asymmetric top.
 Rotational symmetry number  1.
 Warning -- assumption of classical behavior for rotation
           may cause significant error
 Rotational temperatures (Kelvin)      0.02448     0.01166     0.01099
 Rotational constants (GHZ):           0.51002     0.24298     0.22891
   22 imaginary frequencies ignored.
 Zero-point vibrational energy     600232.3 (Joules/Mol)
                                  143.45897 (Kcal/Mol)
 Warning -- explicit consideration of  20 degrees of freedom as
           vibrations may cause significant error
 Vibrational temperatures:     14.60    77.20   166.29   236.03   270.25
          (Kelvin)            299.16   362.16   381.54   403.99   460.79
                              485.35   533.25   602.70   723.84   758.52
                              782.14   811.90   851.40   874.41   885.25
                              900.07   941.77   954.77   982.16  1064.94
                             1081.74  1083.04  1133.89  1138.04  1214.15
                             1268.22  1302.42  1325.74  1438.72  1510.00
                             1641.81  1694.75  1766.26  1819.03  1894.63
                             1933.94  1976.51  2025.27  2044.34  2074.38
                             2077.70  2093.53  2217.36  2239.78  2363.56
                             2376.50  2420.92  2441.06  2474.68  6999.06
                             7012.29  7029.91  7036.25  7039.56  7041.42
                             7046.82  7055.38  7064.95  7078.99  7081.63

 Zero-point correction=                           0.228616 (Hartree/Particle)
 Thermal correction to Energy=                    0.241135
 Thermal correction to Enthalpy=                  0.242079
 Thermal correction to Gibbs Free Energy=         0.186990
 Sum of electronic and zero-point Energies=          -1234.095771
 Sum of electronic and thermal Energies=             -1234.083253
 Sum of electronic and thermal Enthalpies=           -1234.082308
 Sum of electronic and thermal Free Energies=        -1234.137398

                     E (Thermal)             CV                S
                      KCal/Mol        Cal/Mol-Kelvin    Cal/Mol-Kelvin
 Total                  151.315             48.587            115.946
 Electronic               0.000              0.000              0.000
 Translational            0.889              2.981             42.819
 Rotational               0.889              2.981             33.693
 Vibrational            149.537             42.625             39.433
 Vibration     1          0.593              1.987              7.981
 Vibration     2          0.596              1.976              4.678
 Vibration     3          0.608              1.936              3.173
 Vibration     4          0.623              1.887              2.503
 Vibration     5          0.633              1.857              2.249
 Vibration     6          0.641              1.829              2.062
 Vibration     7          0.664              1.760              1.719
 Vibration     8          0.671              1.737              1.627
 Vibration     9          0.680              1.709              1.529
 Vibration    10          0.706              1.635              1.309
 Vibration    11          0.718              1.601              1.225
 Vibration    12          0.743              1.533              1.077
 Vibration    13          0.782              1.429              0.896
 Vibration    14          0.858              1.243              0.650
 Vibration    15          0.882              1.190              0.593
 Vibration    16          0.899              1.154              0.558
 Vibration    17          0.920              1.109              0.515
 Vibration    18          0.949              1.049              0.464
 Vibration    19          0.967              1.015              0.437
 Vibration    20          0.975              1.000              0.424

 Normal termination of Gaussian 16 at Mon Mar  6 11:12:30 2023.
