 Gaussian 16, Revision C.01,
 Gaussian 16:  ES64L-G16RevC.01  3-Jul-2019

 ----------------------------------------------------------------------
 #p pop=(regular,nbo,savenbos) freq=noraman def2svp empiricaldispersion
 =gd3bj output=wfx pbe1pbe
 ----------------------------------------------------------------------

 ----------------------------------------
 HACTUA_Complex_5_Ligand_0_NN_Cu_oriented
 ----------------------------------------
 Symbolic Z-matrix:
 Charge = -1 Multiplicity = 1

                         Standard orientation:
 ---------------------------------------------------------------------
 Center     Atomic      Atomic             Coordinates (Angstroms)
 Number     Number       Type             X           Y           Z
 ---------------------------------------------------------------------
      1          7           0        0.687398   -1.042660    0.574131
      2          6           0        2.069350    0.611590   -0.284955
      3          6           0        1.930095   -0.729726   -0.223500
      4          1           0        0.970164   -1.312772    1.609082
      5          1           0        2.616424    0.911490    0.669797
      6          1           0        1.600776   -0.963589   -1.282084
      7          1           0        2.835252   -1.219310   -0.108890
      8          8           0       -2.369819    0.897635    0.054624
      9          7           0       -1.715991   -1.249373   -0.521037
     10          6           0       -1.526713   -0.031602    0.008645
     11          6           0       -0.156891    0.191112    0.590652
     12          6           0        0.630574    1.236100   -0.174206
     13          1           0       -0.385293    0.554153    1.668649
     14          1           0        0.130479    1.139812   -1.047905
     15          1           0        0.639453    2.088571    0.319189
     16          1           0       -2.664461   -1.058141   -0.908190
     17          1           0        2.737423    1.058100   -1.228111
 ---------------------------------------------------------------------

 SCF Done:  E(RPBE1PBE) =  -379.891916949     A.U. after   14 cycles

 The electronic state is 1-A.
 Alpha  occ. eigenvalues --  -18.91898 -14.22602 -14.10051 -10.10586 -10.10129
 Alpha  occ. eigenvalues --  -10.08409 -10.06426 -10.06242  -0.79341  -0.77237
 Alpha  occ. eigenvalues --   -0.64118  -0.61613  -0.60115  -0.46196  -0.44364
 Alpha  occ. eigenvalues --   -0.39146  -0.35231  -0.31702  -0.30227  -0.27108
 Alpha  occ. eigenvalues --   -0.25108  -0.22591  -0.20441  -0.19374  -0.18513
 Alpha  occ. eigenvalues --   -0.16891  -0.13788  -0.07636  -0.06948  -0.00438
 Alpha  occ. eigenvalues --    0.00287
 Alpha virt. eigenvalues --    0.17589   0.20158   0.23376   0.24332   0.25833
 Alpha virt. eigenvalues --    0.27576   0.29639   0.29975   0.31075   0.32108
 Alpha virt. eigenvalues --    0.34165   0.35548   0.41302   0.42958   0.47867

 Mulliken charges:
               1
     1  N   -0.286938
     2  C   -0.166559
     3  C    0.155836
     4  H    0.094781
     5  H   -0.024214
     6  H    0.003834
     7  H   -0.018922
     8  O   -0.469750
     9  N   -0.351011
    10  C   -0.015580
    11  C   -0.061271
    12  C    0.162345
    13  H   -0.008287
    14  H    0.000417
    15  H   -0.032206
    16  H    0.010540
    17  H    0.006984
 Sum of Mulliken charges =  -1.00000

 Dipole moment (field-independent basis, Debye):
    X=              7.9161    Y=              1.4503    Z=              1.3965  Tot=              8.1681
 Quadrupole moment (field-independent basis, Debye-Ang):
   XX=            -71.0704   YY=            -62.8224   ZZ=            -50.1424
   XY=             -0.0327   XZ=              0.0374   YZ=             -2.4063

  Exact polarizability:      84.732       2.786      67.893       0.558       3.476      65.222
 Approx polarizability:     104.700      -1.297     105.458       0.460       8.504      95.191

 Summary of Natural Population Analysis:

                                       Natural Population
                Natural  -----------------------------------------------
    Atom  No    Charge         Core      Valence    Rydberg      Total
 -----------------------------------------------------------------------
      N    1   -0.69541      1.99944     5.68086    0.01511     7.69541
      C    2   -0.45042      1.99889     4.43577    0.01576     6.45042
      C    3   -0.24567      1.99867     4.22808    0.01892     6.24567
      H    4    0.34483      0.00000     0.64878    0.00639     0.65517
      H    5    0.18298      0.00000     0.80944    0.00758     0.81702
      H    6    0.19725      0.00000     0.79439    0.00836     0.80275
      H    7    0.19615      0.00000     0.80003    0.00383     0.80385
      O    8   -0.81631      1.99974     6.80642    0.01015     8.81631
      N    9   -0.90649      1.99948     5.89335    0.01365     7.90649
      C   10    0.58021      1.99923     3.35664    0.06393     5.41979
      C   11   -0.10363      1.99899     4.08089    0.02374     6.10363
      C   12   -0.40179      1.99903     4.38542    0.01733     6.40179
      H   13    0.20362      0.00000     0.78868    0.00771     0.79638
      H   14    0.21743      0.00000     0.77742    0.00515     0.78257
      H   15    0.19656      0.00000     0.80003    0.00342     0.80344
      H   16    0.29105      0.00000     0.69891    0.01004     0.70895
      H   17    0.20964      0.00000     0.78616    0.00421     0.79036
 =======================================================================
   * Total *   -1.00000     15.99347    45.77125    0.23528    62.00000

 ******    3 imaginary frequencies (negative Signs) ******

                      1                      2                      3
                      A                      A                      A
 Frequencies --   -816.6553              -356.4429              -304.4279
 Red. masses --      1.0971                 1.6418                 1.5625
 Frc consts  --      0.4311                 0.1229                 0.0853
 IR Inten    --      0.7848                 1.9263                 2.2816

                      4                      5                      6
                      A                      A                      A
 Frequencies --    101.0515               180.5797               355.6478
 Red. masses --      2.6846                 3.7890                 3.8306
 Frc consts  --      0.0162                 0.0728                 0.2855
 IR Inten    --      8.0347                 0.7451                 4.5483

                      7                      8                      9
                      A                      A                      A
 Frequencies --    440.6948               484.5269               587.6127
 Red. masses --      5.4442                 2.9615                 2.4658
 Frc consts  --      0.6230                 0.4096                 0.5016
 IR Inten    --      6.6043                 2.6608                 5.7183

                     10                     11                     12
                      A                      A                      A
 Frequencies --    622.1404               672.7147               760.0888
 Red. masses --      2.7573                 3.3998                 1.5661
 Frc consts  --      0.6288                 0.9065                 0.5331
 IR Inten    --     14.5392                24.6522                20.4773

                     13                     14                     15
                      A                      A                      A
 Frequencies --    780.4499               821.1529               850.4331
 Red. masses --      2.2846                 3.1498                 3.2058
 Frc consts  --      0.8199                 1.2514                 1.3660
 IR Inten    --     19.2989                 7.6169                 6.0503

                     16                     17                     18
                      A                      A                      A
 Frequencies --    905.2588               926.4245               975.7706
 Red. masses --      3.4237                 1.4571                 2.1007
 Frc consts  --      1.6531                 0.7368                 1.1784
 IR Inten    --     30.2213                42.8278                13.9302

                     19                     20                     21
                      A                      A                      A
 Frequencies --   1008.1750              1040.4425              1055.2011
 Red. masses --      1.5875                 1.4996                 1.9643
 Frc consts  --      0.9507                 0.9565                 1.2887
 IR Inten    --     10.5266                21.5822                16.3160

                     22                     23                     24
                      A                      A                      A
 Frequencies --   1102.4768              1141.0742              1180.0686
 Red. masses --      1.6172                 1.4108                 1.9433
 Frc consts  --      1.1581                 1.0823                 1.5945
 IR Inten    --     32.3735                 8.3233                 1.1978

                     25                     26                     27
                      A                      A                      A
 Frequencies --   1271.4972              1291.5087              1340.1815
 Red. masses --      1.8704                 1.1139                 1.3206
 Frc consts  --      1.7816                 1.0947                 1.3975
 IR Inten    --     98.8428                 4.7046                 4.7876

                     28                     29                     30
                      A                      A                      A
 Frequencies --   1359.2449              1379.8158              1409.7948
 Red. masses --      1.3875                 1.3552                 1.1585
 Frc consts  --      1.5103                 1.5202                 1.3567
 IR Inten    --     13.0419                 6.6892                 0.1354

                     31                     32                     33
                      A                      A                      A
 Frequencies --   1461.3917              1486.2908              1489.9811
 Red. masses --      1.1182                 1.2138                 2.4515
 Frc consts  --      1.4070                 1.5798                 3.2066
 IR Inten    --      2.8359                 8.2118                44.9506

                     34                     35                     36
                      A                      A                      A
 Frequencies --   1532.5600              1690.2088              1764.9825
 Red. masses --      1.2310                 8.4669                 4.2458
 Frc consts  --      1.7036                14.2513                 7.7927
 IR Inten    --      7.2996               353.4266                14.5496

                     37                     38                     39
                      A                      A                      A
 Frequencies --   1996.0940              2542.7714              2611.8267
 Red. masses --      1.1302                 1.0840                 1.0776
 Frc consts  --      2.6531                 4.1297                 4.3310
 IR Inten    --    155.8630                93.7285                35.8724

                     40                     41                     42
                      A                      A                      A
 Frequencies --   2700.6961              2759.1668              3277.8632
 Red. masses --      1.0719                 1.0790                 1.0682
 Frc consts  --      4.6062                 4.8396                 6.7622
 IR Inten    --     73.5073               134.1209                63.8969

                     43                     44                     45
                      A                      A                      A
 Frequencies --   3747.5980              3970.8650              4345.1338
 Red. masses --      1.0889                 1.0630                 1.1047
 Frc consts  --      9.0101                 9.8756                12.2884
 IR Inten    --     35.9905                 5.9983                 3.8966

 - Thermochemistry -
 -------------------
 Temperature   298.150 Kelvin.  Pressure   1.00000 Atm.
 Atom     1 has atomic number  7 and mass  14.00307

 Molecular mass:   113.07149 amu.
 Principal axes and moments of inertia in atomic units:
                           1         2         3
     Eigenvalues --   423.306781163.212431403.07250
           X            0.99988   0.01519  -0.00216
           Y           -0.01519   0.99988  -0.00126
           Z            0.00214   0.00129   1.00000
 This molecule is an asymmetric top.
 Rotational symmetry number  1.
 Rotational temperatures (Kelvin)      0.20461     0.07446     0.06173
 Rotational constants (GHZ):           4.26344     1.55151     1.28628
    3 imaginary frequencies ignored.
 Zero-point vibrational energy     367381.9 (Joules/Mol)
                                   87.80638 (Kcal/Mol)
 Warning -- explicit consideration of   6 degrees of freedom as
           vibrations may cause significant error
 Vibrational temperatures:    145.39   259.81   511.70   634.06   697.13
          (Kelvin)            845.44   895.12   967.89  1093.60  1122.89
                             1181.46  1223.58  1302.47  1332.92  1403.92
                             1450.54  1496.96  1518.20  1586.22  1641.75
                             1697.86  1829.40  1858.19  1928.22  1955.65
                             1985.25  2028.38  2102.62  2138.44  2143.75
                             2205.01  2431.83  2539.42  2871.93  3658.48
                             3757.84  3885.70  3969.83  4716.11  5391.96
                             5713.19  6251.68

 Zero-point correction=                           0.139928 (Hartree/Particle)
 Thermal correction to Energy=                    0.146086
 Thermal correction to Enthalpy=                  0.147030
 Thermal correction to Gibbs Free Energy=         0.109232
 Sum of electronic and zero-point Energies=           -379.751989
 Sum of electronic and thermal Energies=              -379.745831
 Sum of electronic and thermal Enthalpies=            -379.744887
 Sum of electronic and thermal Free Energies=         -379.782685

                     E (Thermal)             CV                S
                      KCal/Mol        Cal/Mol-Kelvin    Cal/Mol-Kelvin
 Total                   91.670             23.823             79.551
 Electronic               0.000              0.000              0.000
 Translational            0.889              2.981             40.084
 Rotational               0.889              2.981             28.026
 Vibrational             89.893             17.862             11.441
 Vibration     1          0.604              1.948              3.434
 Vibration     2          0.630              1.866              2.322
 Vibration     3          0.731              1.564              1.141
 Vibration     4          0.801              1.381              0.824
 Vibration     5          0.841              1.284              0.698
 Vibration     6          0.945              1.058              0.471

 Normal termination of Gaussian 16 at Mon Mar  6 10:28:27 2023.
