 Gaussian 16, Revision C.01,
 Gaussian 16:  ES64L-G16RevC.01  3-Jul-2019

 ----------------------------------------------------------------------
 #p pop=(regular,nbo,savenbos) freq=noraman def2svp empiricaldispersion
 =gd3bj output=wfx pbe1pbe
 ----------------------------------------------------------------------

 ----------------------------------------
 HAJJIM_Complex_4_Ligand_1_NN_Cu_oriented
 ----------------------------------------
 Symbolic Z-matrix:
 Charge =  0 Multiplicity = 1

                         Standard orientation:
 ---------------------------------------------------------------------
 Center     Atomic      Atomic             Coordinates (Angstroms)
 Number     Number       Type             X           Y           Z
 ---------------------------------------------------------------------
      1          7           0       -1.355057   -1.426264   -0.940052
      2          1           0       -1.017564   -2.186347   -1.284173
      3          1           0       -2.239355   -1.556725   -0.837673
      4          6           0       -0.773431   -1.262746    0.419810
      5          1           0       -1.051241   -2.028766    0.964216
      6          6           0       -0.750537    1.272032    0.429483
      7          6           0       -1.292476    0.004336    1.083359
      8          1           0       -1.040522   -0.002141    2.020236
      9          6           0        0.754518   -1.267191    0.335832
     10          1           0        1.040384   -2.042241   -0.171985
     11          1           0        1.119705   -1.348343    1.231213
     12          6           0        1.318262   -0.010900   -0.317194
     13          1           0        1.062899   -0.000077   -1.263328
     14          6           0        0.775062    1.242209    0.359935
     15          1           0        1.132684    1.294318    1.260091
     16          1           0        1.083532    2.022202   -0.126785
     17          8           0        2.742028   -0.075134   -0.218425
     18          1           0        3.038485    0.509634   -0.711398
     19          7           0       -1.329024    1.455963   -0.933280
     20          1           0       -0.975693    2.210497   -1.273365
     21          1           0       -2.211124    1.603692   -0.830602
     22          1           0       -1.016902    2.038371    0.980647
     23          1           0       -2.261342    0.012662    1.036288
 ---------------------------------------------------------------------

 SCF Done:  E(RPBE1PBE) =  -420.800355739     A.U. after   12 cycles

 The electronic state is 1-A.
 Alpha  occ. eigenvalues --  -19.17521 -14.32548 -14.32310 -10.24705 -10.23610
 Alpha  occ. eigenvalues --  -10.23350 -10.19338 -10.18898 -10.18621  -1.05213
 Alpha  occ. eigenvalues --   -0.92399  -0.90490  -0.82136  -0.76138  -0.75313
 Alpha  occ. eigenvalues --   -0.64129  -0.63249  -0.57104  -0.53770  -0.51962
 Alpha  occ. eigenvalues --   -0.51121  -0.50350  -0.48088  -0.46616  -0.43158
 Alpha  occ. eigenvalues --   -0.41552  -0.40277  -0.38729  -0.37331  -0.36311
 Alpha  occ. eigenvalues --   -0.34624  -0.32917  -0.31782  -0.27509  -0.25074
 Alpha  occ. eigenvalues --   -0.21044
 Alpha virt. eigenvalues --    0.07016   0.09504   0.10230   0.11818   0.12866
 Alpha virt. eigenvalues --    0.14809   0.14872   0.16065   0.16749   0.17790
 Alpha virt. eigenvalues --    0.19721   0.20427   0.21452   0.22680   0.23314

 Mulliken charges:
               1
     1  N   -0.083271
     2  H    0.038883
     3  H    0.034944
     4  C   -0.076116
     5  H   -0.038721
     6  C   -0.072414
     7  C    0.196300
     8  H   -0.031216
     9  C    0.176152
    10  H   -0.036185
    11  H   -0.035837
    12  C    0.147477
    13  H   -0.032237
    14  C    0.157500
    15  H   -0.037830
    16  H   -0.049676
    17  O   -0.239943
    18  H    0.078312
    19  N   -0.084290
    20  H    0.037808
    21  H    0.036763
    22  H   -0.038238
    23  H   -0.048165
 Sum of Mulliken charges =  -0.00000

 Dipole moment (field-independent basis, Debye):
    X=             -1.6879    Y=              0.9361    Z=              0.5535  Tot=              2.0079
 Quadrupole moment (field-independent basis, Debye-Ang):
   XX=            -54.5512   YY=            -47.5098   ZZ=            -56.0458
   XY=              3.3850   XZ=             -3.9389   YZ=             -0.8366

  Exact polarizability:      73.707       0.399      69.348      -0.172      -0.389      62.807
 Approx polarizability:      94.889       0.014      87.767       0.434      -0.764      88.243

 Summary of Natural Population Analysis:

                                       Natural Population
                Natural  -----------------------------------------------
    Atom  No    Charge         Core      Valence    Rydberg      Total
 -----------------------------------------------------------------------
      N    1   -0.80557      1.99941     5.78326    0.02290     7.80557
      H    2    0.31765      0.00000     0.67685    0.00550     0.68235
      H    3    0.31724      0.00000     0.67713    0.00563     0.68276
      C    4    0.02314      1.99906     3.96103    0.01678     5.97686
      H    5    0.15997      0.00000     0.83594    0.00410     0.84003
      C    6    0.02359      1.99906     3.96057    0.01679     5.97641
      C    7   -0.39466      1.99901     4.37947    0.01619     6.39466
      H    8    0.19422      0.00000     0.80234    0.00344     0.80578
      C    9   -0.40162      1.99900     4.38494    0.01767     6.40162
      H   10    0.19318      0.00000     0.80229    0.00453     0.80682
      H   11    0.19312      0.00000     0.80220    0.00468     0.80688
      C   12    0.18423      1.99894     3.79490    0.02194     5.81577
      H   13    0.16251      0.00000     0.83214    0.00535     0.83749
      C   14   -0.41867      1.99899     4.40192    0.01775     6.41867
      H   15    0.19346      0.00000     0.80136    0.00518     0.80654
      H   16    0.18434      0.00000     0.81108    0.00458     0.81566
      O   17   -0.72115      1.99970     6.70345    0.01800     8.72115
      H   18    0.41636      0.00000     0.57643    0.00720     0.58364
      N   19   -0.80519      1.99941     5.78299    0.02279     7.80519
      H   20    0.31638      0.00000     0.67808    0.00554     0.68362
      H   21    0.31834      0.00000     0.67606    0.00560     0.68166
      H   22    0.16016      0.00000     0.83564    0.00420     0.83984
      H   23    0.18896      0.00000     0.80722    0.00382     0.81104
 =======================================================================
   * Total *   -0.00000     17.99258    53.76729    0.24013    72.00000

 ******   19 imaginary frequencies (negative Signs) ******

                      1                      2                      3
                      A                      A                      A
 Frequencies --  -2075.9986             -1575.1024             -1562.8058
 Red. masses --      1.0714                 1.0924                 1.0614
 Frc consts  --      2.7204                 1.5968                 1.5274
 IR Inten    --    130.2072               138.7240                28.2311

                      4                      5                      6
                      A                      A                      A
 Frequencies --  -1539.2692             -1300.1088             -1289.4042
 Red. masses --      1.0350                 1.1665                 1.1352
 Frc consts  --      1.4448                 1.1617                 1.1120
 IR Inten    --     72.0743                37.2308               208.3957

                      7                      8                      9
                      A                      A                      A
 Frequencies --  -1083.8789             -1075.9889             -1060.1442
 Red. masses --      1.0371                 1.0409                 1.0535
 Frc consts  --      0.7179                 0.7101                 0.6976
 IR Inten    --      2.2931                 0.8582                 0.3471

                     10                     11                     12
                      A                      A                      A
 Frequencies --   -960.6226              -933.9539              -546.5321
 Red. masses --      1.0879                 1.1004                 1.3157
 Frc consts  --      0.5915                 0.5655                 0.2315
 IR Inten    --      0.6370                 2.4083                 1.1822

                     13                     14                     15
                      A                      A                      A
 Frequencies --   -517.1068              -474.4940              -454.7751
 Red. masses --      1.1937                 1.1788                 1.4060
 Frc consts  --      0.1881                 0.1564                 0.1713
 IR Inten    --      0.4716                 0.5263                 0.7013

                     16                     17                     18
                      A                      A                      A
 Frequencies --   -448.9756              -381.7035              -263.6295
 Red. masses --      1.3421                 1.4420                 2.4176
 Frc consts  --      0.1594                 0.1238                 0.0990
 IR Inten    --      0.5408                 2.4126                 1.3676

                     19                     20                     21
                      A                      A                      A
 Frequencies --   -254.9616               175.6399               372.9605
 Red. masses --      1.6886                 2.3701                 2.6400
 Frc consts  --      0.0647                 0.0431                 0.2164
 IR Inten    --      0.3160                 0.3014                 0.7643

                     22                     23                     24
                      A                      A                      A
 Frequencies --    458.2847               517.7684               544.6325
 Red. masses --      1.3824                 1.7474                 3.2575
 Frc consts  --      0.1711                 0.2760                 0.5693
 IR Inten    --      0.6668                 2.4617                 0.8903

                     25                     26                     27
                      A                      A                      A
 Frequencies --    622.2420               651.0853               679.9499
 Red. masses --      2.5405                 2.3439                 1.6619
 Frc consts  --      0.5795                 0.5854                 0.4527
 IR Inten    --      7.9003                 7.1153                 1.8913

                     28                     29                     30
                      A                      A                      A
 Frequencies --    705.8453               800.3575               821.3136
 Red. masses --      2.6163                 1.5283                 2.8725
 Frc consts  --      0.7680                 0.5768                 1.1416
 IR Inten    --      7.2524                23.5950                 2.9272

                     31                     32                     33
                      A                      A                      A
 Frequencies --    836.8723               859.4315               897.1206
 Red. masses --      2.3255                 2.3169                 1.7943
 Frc consts  --      0.9596                 1.0083                 0.8508
 IR Inten    --      4.8130                17.8428                 2.2115

                     34                     35                     36
                      A                      A                      A
 Frequencies --    914.9555               929.9070               948.4993
 Red. masses --      1.7912                 2.0278                 1.2034
 Frc consts  --      0.8835                 1.0331                 0.6379
 IR Inten    --      6.3135                 2.3770                10.5732

                     37                     38                     39
                      A                      A                      A
 Frequencies --    954.9408               962.2218               980.9646
 Red. masses --      1.1134                 2.3025                 1.1552
 Frc consts  --      0.5982                 1.2560                 0.6549
 IR Inten    --      3.0688                 1.6039                45.5121

                     40                     41                     42
                      A                      A                      A
 Frequencies --    994.2883              1071.2410              1082.7723
 Red. masses --      1.7647                 1.9914                 1.8313
 Frc consts  --      1.0279                 1.3464                 1.2650
 IR Inten    --     12.2926                27.6847                 1.7223

                     43                     44                     45
                      A                      A                      A
 Frequencies --   1141.2423              1160.3560              1200.4659
 Red. masses --      2.9699                 5.8921                 4.6215
 Frc consts  --      2.2790                 4.6742                 3.9241
 IR Inten    --     20.5528                47.2669                38.4658

                     46                     47                     48
                      A                      A                      A
 Frequencies --   1210.3679              1261.8447              1271.0584
 Red. masses --      4.3111                 5.7418                 6.1215
 Frc consts  --      3.7211                 5.3866                 5.8269
 IR Inten    --      0.4918                 8.6166                15.5469

                     49                     50                     51
                      A                      A                      A
 Frequencies --   1282.2275              4326.2101              4336.2977
 Red. masses --      6.0394                 1.0874                 1.0874
 Frc consts  --      5.8503                11.9910                12.0473
 IR Inten    --      7.3176                38.2190                37.3542

                     52                     53                     54
                      A                      A                      A
 Frequencies --   4368.9022              4419.5723              4421.9231
 Red. masses --      1.0881                 1.0603                 1.0603
 Frc consts  --     12.2370                12.2021                12.2155
 IR Inten    --      7.0186                18.6454                15.7875

                     55                     56                     57
                      A                      A                      A
 Frequencies --   4424.4772              4539.7110              4542.8308
 Red. masses --      1.0608                 1.1082                 1.1084
 Frc consts  --     12.2350                13.4561                13.4767
 IR Inten    --      7.7029                 8.5439                 9.5915

                     58                     59                     60
                      A                      A                      A
 Frequencies --   4544.9672              5110.9641              5114.0000
 Red. masses --      1.1084                 1.0514                 1.0515
 Frc consts  --     13.4899                16.1818                16.2025
 IR Inten    --      8.0086                 1.9486                 1.8634

                     61                     62                     63
                      A                      A                      A
 Frequencies --   5238.8506              5241.6250              6301.3499
 Red. masses --      1.0939                 1.0938                 1.0671
 Frc consts  --     17.6896                17.7066                24.9644
 IR Inten    --      4.3887                 4.6208                62.1164

 - Thermochemistry -
 -------------------
 Temperature   298.150 Kelvin.  Pressure   1.00000 Atm.
 Atom     1 has atomic number  7 and mass  14.00307

 Molecular mass:   130.11061 amu.
 Principal axes and moments of inertia in atomic units:
                           1         2         3
     Eigenvalues --   838.244861214.631631589.06982
           X            0.99987   0.01502  -0.00590
           Y           -0.01503   0.99988  -0.00270
           Z            0.00586   0.00279   0.99998
 This molecule is an asymmetric top.
 Rotational symmetry number  1.
 Warning -- assumption of classical behavior for rotation
           may cause significant error
 Rotational temperatures (Kelvin)      0.10333     0.07131     0.05451
 Rotational constants (GHZ):           2.15300     1.48583     1.13572
   19 imaginary frequencies ignored.
 Zero-point vibrational energy     557714.2 (Joules/Mol)
                                  133.29690 (Kcal/Mol)
 Warning -- explicit consideration of   5 degrees of freedom as
           vibrations may cause significant error
 Vibrational temperatures:    252.71   536.61   659.37   744.95   783.60
          (Kelvin)            895.27   936.77   978.30  1015.55  1151.54
                             1181.69  1204.07  1236.53  1290.76  1316.42
                             1337.93  1364.68  1373.95  1384.42  1411.39
                             1430.56  1541.28  1557.87  1641.99  1669.49
                             1727.20  1741.45  1815.51  1828.77  1844.84
                             6224.45  6238.97  6285.88  6358.78  6362.16
                             6365.84  6531.63  6536.12  6539.19  7353.54
                             7357.91  7537.54  7541.53  9066.24

 Zero-point correction=                           0.212422 (Hartree/Particle)
 Thermal correction to Energy=                    0.218176
 Thermal correction to Enthalpy=                  0.219120
 Thermal correction to Gibbs Free Energy=         0.181940
 Sum of electronic and zero-point Energies=           -420.587934
 Sum of electronic and thermal Energies=              -420.582179
 Sum of electronic and thermal Enthalpies=            -420.581235
 Sum of electronic and thermal Free Energies=         -420.618415

                     E (Thermal)             CV                S
                      KCal/Mol        Cal/Mol-Kelvin    Cal/Mol-Kelvin
 Total                  136.908             24.562             78.252
 Electronic               0.000              0.000              0.000
 Translational            0.889              2.981             40.503
 Rotational               0.889              2.981             28.872
 Vibrational            135.130             18.600              8.878
 Vibration     1          0.628              1.872              2.374
 Vibration     2          0.744              1.528              1.068
 Vibration     3          0.816              1.343              0.771
 Vibration     4          0.873              1.211              0.615
 Vibration     5          0.900              1.151              0.555

 Normal termination of Gaussian 16 at Sat Mar  4 11:36:34 2023.
