 Gaussian 16, Revision C.01,
 Gaussian 16:  ES64L-G16RevC.01  3-Jul-2019

 ----------------------------------------------------------------------
 #p pop=(regular,nbo,savenbos) freq=noraman def2svp empiricaldispersion
 =gd3bj output=wfx pbe1pbe
 ----------------------------------------------------------------------

 ----------------------------------------
 HERLEV_Complex_3_Ligand_0_NN_Cu_oriented
 ----------------------------------------
 Symbolic Z-matrix:
 Charge = -1 Multiplicity = 1

                         Standard orientation:
 ---------------------------------------------------------------------
 Center     Atomic      Atomic             Coordinates (Angstroms)
 Number     Number       Type             X           Y           Z
 ---------------------------------------------------------------------
      1          8           0        1.359715    3.216422    1.375169
      2          7           0        1.171083    3.113814   -0.914064
      3          7           0        1.430290    0.482773   -0.992476
      4          6           0        1.403094    2.617854    0.260580
      5          6           0        1.884449    1.153910    0.249951
      6          6           0        3.432943    1.186941    0.291212
      7          6           0        0.226845   -0.378832   -0.794570
      8          6           0       -1.047334    0.409040   -0.516588
      9          1           0        1.006403    3.886354   -0.903546
     10          1           0        2.037145   -0.138633   -1.366417
     11          1           0        3.706908    1.679596   -0.404594
     12          1           0        3.761172    1.777550    1.051892
     13          1           0        0.187703   -0.723313   -1.671385
     14          1           0       -1.330275    1.068041   -1.261342
     15          6           0        4.078862   -0.198039    0.225159
     16          6           0        4.140159   -1.002473    1.353726
     17          6           0        4.765571   -2.255995    1.275548
     18          6           0        5.331413   -2.663178    0.110862
     19          6           0        5.248585   -1.892912   -1.010246
     20          1           0        3.686565   -0.673125    2.164891
     21          1           0        4.659392   -2.895393    2.091940
     22          1           0        5.734575   -3.425804   -0.046073
     23          6           0        4.627823   -0.656287   -0.957874
     24          1           0        4.532537    0.051843   -1.706279
     25          6           0       -2.214490   -0.540370   -0.282108
     26          6           0       -3.571228    0.146126   -0.185999
     27          6           0       -4.711716   -0.813939    0.039103
     28          6           0       -6.097848   -0.207387    0.051661
     29          6           0       -7.206768   -1.207010    0.273919
     30          6           0       -8.599305   -0.637673    0.285130
     31          1           0       -2.073426   -1.048057    0.561335
     32          1           0       -2.170958   -1.232006   -1.003640
     33          1           0       -3.591061    0.713873    0.563566
     34          1           0       -4.605622   -1.349101    0.807678
     35          1           0       -4.630714   -1.488291   -0.652116
     36          1           0       -6.171227    0.430184    0.762909
     37          1           0       -6.200533    0.283216   -0.763355
     38          1           0       -7.047980   -1.703046    1.073360
     39          1           0       -7.090645   -1.923452   -0.391690
     40          1           0       -8.705407   -0.216150   -0.686890
     41          1           0       -9.336736   -1.374650    0.520186
     42          1           0       -8.610448    0.070285    1.098383
     43          1           0        5.578999   -2.195093   -1.810512
     44          1           0        0.414966   -1.014423   -0.079141
     45          1           0       -0.926431    0.906924    0.314501
     46          1           0       -3.648501    0.591616   -1.072967
     47          1           0        1.599947    0.674913    1.136950
 ---------------------------------------------------------------------

 SCF Done:  E(RPBE1PBE) =  -846.793103039     A.U. after   18 cycles

 The electronic state is 1-A.
 Alpha  occ. eigenvalues --  -18.92233 -14.20653 -14.07729 -10.15356 -10.13424
 Alpha  occ. eigenvalues --  -10.12731 -10.12685 -10.12128 -10.11967 -10.11945
 Alpha  occ. eigenvalues --  -10.11598 -10.11350 -10.10567 -10.09946 -10.09221
 Alpha  occ. eigenvalues --  -10.08917 -10.08346 -10.07392 -10.07165 -10.06606
 Alpha  occ. eigenvalues --   -0.79391  -0.78544  -0.77263  -0.76804  -0.73070
 Alpha  occ. eigenvalues --   -0.69920  -0.68183  -0.67070  -0.65588  -0.63639
 Alpha  occ. eigenvalues --   -0.61757  -0.57369  -0.55814  -0.54422  -0.53831
 Alpha  occ. eigenvalues --   -0.52137  -0.50483  -0.47955  -0.45599  -0.44378
 Alpha  occ. eigenvalues --   -0.41366  -0.39813  -0.39267  -0.38358  -0.38095
 Alpha  occ. eigenvalues --   -0.37062  -0.35381  -0.35315  -0.34560  -0.34165
 Alpha  occ. eigenvalues --   -0.33577  -0.33229  -0.31904  -0.30544  -0.29266
 Alpha  occ. eigenvalues --   -0.28714  -0.28456  -0.27902  -0.27223  -0.26848
 Alpha  occ. eigenvalues --   -0.26394  -0.25665  -0.24205  -0.23342  -0.23082
 Alpha  occ. eigenvalues --   -0.22248  -0.21969  -0.20664  -0.19789  -0.16726
 Alpha  occ. eigenvalues --   -0.16446  -0.14333  -0.08167  -0.05537  -0.01092
 Alpha  occ. eigenvalues --   -0.00715
 Alpha virt. eigenvalues --    0.09236   0.10549   0.13642   0.16741   0.18453
 Alpha virt. eigenvalues --    0.18521   0.18753   0.19590   0.21081   0.21263
 Alpha virt. eigenvalues --    0.21942   0.22204   0.23275   0.23792   0.23887

 Mulliken charges:
               1
     1  O   -0.473696
     2  N   -0.175201
     3  N   -0.221418
     4  C   -0.077258
     5  C    0.039184
     6  C    0.312642
     7  C    0.212598
     8  C    0.081163
     9  H   -0.073289
    10  H    0.052133
    11  H   -0.128730
    12  H   -0.020418
    13  H   -0.074762
    14  H   -0.002449
    15  C   -0.161974
    16  C    0.042529
    17  C    0.033061
    18  C    0.146410
    19  C    0.094173
    20  H   -0.062039
    21  H   -0.028518
    22  H   -0.171218
    23  C    0.019686
    24  H   -0.023884
    25  C   -0.034648
    26  C    0.118691
    27  C    0.058186
    28  C    0.100067
    29  C    0.011720
    30  C   -0.021923
    31  H   -0.036048
    32  H   -0.036987
    33  H   -0.037908
    34  H   -0.065094
    35  H   -0.053160
    36  H   -0.042779
    37  H   -0.044496
    38  H   -0.044826
    39  H   -0.032070
    40  H    0.031152
    41  H    0.017520
    42  H    0.026279
    43  H   -0.124897
    44  H   -0.053091
    45  H   -0.002238
    46  H   -0.016620
    47  H   -0.055553
 Sum of Mulliken charges =  -1.00000

 Dipole moment (field-independent basis, Debye):
    X=             -6.1709    Y=            -11.5667    Z=             -0.6709  Tot=             13.1270
 Quadrupole moment (field-independent basis, Debye-Ang):
   XX=           -156.1361   YY=           -163.6127   ZZ=           -132.0981
   XY=            -13.1259   XZ=             -4.3801   YZ=             -4.3916

  Exact polarizability:     211.729     -25.131     183.784      -5.297      -5.216     162.011
 Approx polarizability:     231.830     -34.223     260.795     -12.096      -8.288     272.467

 Summary of Natural Population Analysis:

                                       Natural Population
                Natural  -----------------------------------------------
    Atom  No    Charge         Core      Valence    Rydberg      Total
 -----------------------------------------------------------------------
      O    1   -0.82184      1.99975     6.81256    0.00953     8.82184
      N    2   -0.84979      1.99926     5.82272    0.02781     7.84979
      N    3   -0.67381      1.99940     5.65653    0.01788     7.67381
      C    4    0.59575      1.99932     3.33877    0.06617     5.40425
      C    5   -0.09086      1.99898     4.06780    0.02408     6.09086
      C    6   -0.37673      1.99877     4.35907    0.01888     6.37673
      C    7   -0.13459      1.99905     4.11990    0.01564     6.13459
      C    8   -0.38163      1.99912     4.36713    0.01538     6.38163
      H    9    0.24751      0.00000     0.74366    0.00883     0.75249
      H   10    0.33093      0.00000     0.66166    0.00741     0.66907
      H   11    0.17005      0.00000     0.82185    0.00810     0.82995
      H   12    0.22723      0.00000     0.76629    0.00648     0.77277
      H   13    0.16015      0.00000     0.83564    0.00421     0.83985
      H   14    0.20664      0.00000     0.78746    0.00589     0.79336
      C   15   -0.00416      1.99896     3.98550    0.01970     6.00416
      C   16   -0.19426      1.99894     4.18049    0.01483     6.19426
      C   17   -0.21622      1.99910     4.20302    0.01410     6.21622
      C   18   -0.18947      1.99897     4.17532    0.01517     6.18947
      C   19   -0.16239      1.99907     4.14854    0.01478     6.16239
      H   20    0.19714      0.00000     0.79973    0.00313     0.80286
      H   21    0.20004      0.00000     0.79676    0.00320     0.79996
      H   22    0.14332      0.00000     0.85321    0.00347     0.85668
      C   23   -0.23038      1.99893     4.21689    0.01456     6.23038
      H   24    0.21562      0.00000     0.78114    0.00324     0.78438
      C   25   -0.37279      1.99911     4.36135    0.01232     6.37279
      C   26   -0.35345      1.99908     4.34155    0.01282     6.35345
      C   27   -0.34886      1.99898     4.33630    0.01358     6.34886
      C   28   -0.35095      1.99902     4.33860    0.01332     6.35095
      C   29   -0.35313      1.99903     4.34375    0.01035     6.35313
      C   30   -0.62639      1.99928     4.62027    0.00684     6.62639
      H   31    0.17641      0.00000     0.81855    0.00504     0.82359
      H   32    0.17553      0.00000     0.81962    0.00486     0.82447
      H   33    0.17026      0.00000     0.82495    0.00478     0.82974
      H   34    0.16719      0.00000     0.82822    0.00459     0.83281
      H   35    0.17562      0.00000     0.81955    0.00483     0.82438
      H   36    0.17187      0.00000     0.82343    0.00470     0.82813
      H   37    0.17324      0.00000     0.82246    0.00430     0.82676
      H   38    0.17134      0.00000     0.82410    0.00456     0.82866
      H   39    0.18024      0.00000     0.81521    0.00455     0.81976
      H   40    0.20590      0.00000     0.79081    0.00328     0.79410
      H   41    0.20747      0.00000     0.78993    0.00261     0.79253
      H   42    0.20574      0.00000     0.79096    0.00330     0.79426
      H   43    0.15669      0.00000     0.84011    0.00320     0.84331
      H   44    0.14773      0.00000     0.84696    0.00531     0.85227
      H   45    0.19401      0.00000     0.80142    0.00456     0.80599
      H   46    0.18657      0.00000     0.80878    0.00465     0.81343
      H   47    0.17149      0.00000     0.81884    0.00967     0.82851
 =======================================================================
   * Total *   -1.00000     39.98214   111.52736    0.49050   152.00000

 ******   33 imaginary frequencies (negative Signs) ******

                      1                      2                      3
                      A                      A                      A
 Frequencies --  -2668.9252             -2526.9702             -1894.2705
 Red. masses --      1.0716                 1.0745                 1.0647
 Frc consts  --      4.4974                 4.0425                 2.2509
 IR Inten    --     87.0533               156.2528                26.6267

                      4                      5                      6
                      A                      A                      A
 Frequencies --  -1540.4362             -1496.1945             -1445.6597
 Red. masses --      1.0462                 1.0687                 1.0465
 Frc consts  --      1.4627                 1.4096                 1.2886
 IR Inten    --      6.8615                 6.1918                13.1687

                      7                      8                      9
                      A                      A                      A
 Frequencies --  -1364.3043             -1278.4615             -1209.6636
 Red. masses --      1.0811                 1.0371                 1.0266
 Frc consts  --      1.1856                 0.9988                 0.8851
 IR Inten    --      2.0181                 3.9439                 2.4832

                     10                     11                     12
                      A                      A                      A
 Frequencies --  -1170.7627             -1156.6597             -1141.3355
 Red. masses --      1.0355                 1.0366                 1.0373
 Frc consts  --      0.8362                 0.8171                 0.7961
 IR Inten    --      1.2955                 2.1938                 2.0413

                     13                     14                     15
                      A                      A                      A
 Frequencies --  -1004.6761              -898.9876              -887.5217
 Red. masses --      1.0830                 1.1077                 1.0686
 Frc consts  --      0.6441                 0.5274                 0.4960
 IR Inten    --      4.2268                62.6505                 1.9768

                     16                     17                     18
                      A                      A                      A
 Frequencies --   -847.5903              -821.4990              -798.4753
 Red. masses --      1.1065                 1.0766                 1.1123
 Frc consts  --      0.4683                 0.4281                 0.4178
 IR Inten    --      0.4837                 0.8046                 1.5141

                     19                     20                     21
                      A                      A                      A
 Frequencies --   -766.7869              -725.6773              -709.6844
 Red. masses --      1.0332                 1.2342                 1.2019
 Frc consts  --      0.3579                 0.3829                 0.3567
 IR Inten    --     18.0599                 1.4444                 0.1898

                     22                     23                     24
                      A                      A                      A
 Frequencies --   -613.0601              -537.4652              -438.3546
 Red. masses --      1.1823                 1.4285                 1.4056
 Frc consts  --      0.2618                 0.2431                 0.1591
 IR Inten    --      2.2071                 0.4719                 0.5272

                     25                     26                     27
                      A                      A                      A
 Frequencies --   -427.4206              -389.1879              -348.8990
 Red. masses --      1.1389                 1.7750                 1.5257
 Frc consts  --      0.1226                 0.1584                 0.1094
 IR Inten    --      0.1736                 3.5384                 3.9230

                     28                     29                     30
                      A                      A                      A
 Frequencies --   -271.4512              -162.4646              -139.3295
 Red. masses --      1.9501                 2.4794                 3.1582
 Frc consts  --      0.0847                 0.0386                 0.0361
 IR Inten    --      0.3614                 2.5921                 1.9495

                     31                     32                     33
                      A                      A                      A
 Frequencies --   -110.6552               -92.0510               -57.3335
 Red. masses --      5.4980                 2.7009                 3.3908
 Frc consts  --      0.0397                 0.0135                 0.0066
 IR Inten    --      1.1417                 2.7650                 2.0631

                     34                     35                     36
                      A                      A                      A
 Frequencies --     74.3757                77.7008               136.1180
 Red. masses --      4.5107                 4.4262                 3.6783
 Frc consts  --      0.0147                 0.0157                 0.0402
 IR Inten    --      3.9577                10.2953                20.1445

                     37                     38                     39
                      A                      A                      A
 Frequencies --    183.5673               196.9522               217.2238
 Red. masses --      3.1677                 2.6797                 2.0139
 Frc consts  --      0.0629                 0.0612                 0.0560
 IR Inten    --      0.5039                 5.8420                 1.7906

                     40                     41                     42
                      A                      A                      A
 Frequencies --    268.5359               290.1784               360.8376
 Red. masses --      2.7756                 4.1844                 3.7657
 Frc consts  --      0.1179                 0.2076                 0.2889
 IR Inten    --      3.3161                 4.0489                 0.9477

                     43                     44                     45
                      A                      A                      A
 Frequencies --    368.2314               385.6761               429.0750
 Red. masses --      2.3008                 1.6552                 2.3693
 Frc consts  --      0.1838                 0.1451                 0.2570
 IR Inten    --      2.7223                 1.6265                 0.9187

                     46                     47                     48
                      A                      A                      A
 Frequencies --    472.9971               517.0948               522.5706
 Red. masses --      3.2970                 1.6096                 3.5609
 Frc consts  --      0.4346                 0.2536                 0.5729
 IR Inten    --      4.2679                 1.3037                 1.3567

                     49                     50                     51
                      A                      A                      A
 Frequencies --    541.7830               571.6999               599.5175
 Red. masses --      2.8913                 1.4780                 3.0136
 Frc consts  --      0.5000                 0.2846                 0.6382
 IR Inten    --      1.9311                 0.4762                 9.5737

                     52                     53                     54
                      A                      A                      A
 Frequencies --    614.3043               663.6271               671.1540
 Red. masses --      3.2576                 2.6974                 2.0821
 Frc consts  --      0.7243                 0.6999                 0.5526
 IR Inten    --      0.5639                 2.1920                 1.5975

                     55                     56                     57
                      A                      A                      A
 Frequencies --    691.8085               707.3128               721.7904
 Red. masses --      3.5234                 2.2879                 2.7765
 Frc consts  --      0.9936                 0.6744                 0.8522
 IR Inten    --      3.5532                 8.1726                 0.7902

                     58                     59                     60
                      A                      A                      A
 Frequencies --    737.0323               748.7954               754.0962
 Red. masses --      2.4576                 1.5882                 1.3647
 Frc consts  --      0.7866                 0.5247                 0.4572
 IR Inten    --     12.9151                 4.6141                 5.8785

                     61                     62                     63
                      A                      A                      A
 Frequencies --    777.5088               813.0134               829.7381
 Red. masses --      2.6914                 2.6214                 2.2932
 Frc consts  --      0.9586                 1.0209                 0.9302
 IR Inten    --     11.6606                 0.1787                 0.8844

                     64                     65                     66
                      A                      A                      A
 Frequencies --    845.4463               851.1110               869.0359
 Red. masses --      2.8040                 2.4316                 1.6746
 Frc consts  --      1.1809                 1.0378                 0.7451
 IR Inten    --      7.4170                 8.5176                 1.4625

                     67                     68                     69
                      A                      A                      A
 Frequencies --    883.6888               886.6093               901.3923
 Red. masses --      3.9597                 1.2836                 1.6480
 Frc consts  --      1.8218                 0.5945                 0.7889
 IR Inten    --      8.5494                 4.1742                 2.2046

                     70                     71                     72
                      A                      A                      A
 Frequencies --    925.7265               937.2878               961.6111
 Red. masses --      1.3135                 2.6817                 1.4271
 Frc consts  --      0.6632                 1.3881                 0.7775
 IR Inten    --      2.4033                10.2101                 4.0778

                     73                     74                     75
                      A                      A                      A
 Frequencies --    973.0697               983.3300               985.6406
 Red. masses --      1.7658                 1.4100                 1.6770
 Frc consts  --      0.9851                 0.8033                 0.9599
 IR Inten    --      3.1532                 8.3160                 1.1438

                     76                     77                     78
                      A                      A                      A
 Frequencies --    993.2658              1013.5719              1034.1685
 Red. masses --      1.6484                 2.0638                 1.6382
 Frc consts  --      0.9582                 1.2492                 1.0323
 IR Inten    --      2.6345                 4.1390                 2.8890

                     79                     80                     81
                      A                      A                      A
 Frequencies --   1045.2680              1053.2930              1059.3235
 Red. masses --      4.6888                 1.4356                 1.3358
 Frc consts  --      3.0184                 0.9384                 0.8832
 IR Inten    --      0.4227                 9.4011                 7.9829

                     82                     83                     84
                      A                      A                      A
 Frequencies --   1063.9483              1086.0652              1093.8591
 Red. masses --      1.5348                 2.7476                 2.6152
 Frc consts  --      1.0237                 1.9095                 1.8436
 IR Inten    --      4.9697                 1.8492                 0.1988

                     85                     86                     87
                      A                      A                      A
 Frequencies --   1113.3472              1126.3131              1131.1146
 Red. masses --      1.6121                 1.3661                 1.9227
 Frc consts  --      1.1773                 1.0211                 1.4494
 IR Inten    --      1.9889                 2.1027                15.3912

                     88                     89                     90
                      A                      A                      A
 Frequencies --   1136.0406              1150.9219              1166.4521
 Red. masses --      2.5343                 3.3009                 3.0628
 Frc consts  --      1.9271                 2.5762                 2.4553
 IR Inten    --      0.3811                 3.3347                 0.5251

                     91                     92                     93
                      A                      A                      A
 Frequencies --   1180.4476              1188.4399              1203.6442
 Red. masses --      1.2924                 2.7244                 3.9506
 Frc consts  --      1.0611                 2.2671                 3.3721
 IR Inten    --      3.6550                58.9055                 8.3245

                     94                     95                     96
                      A                      A                      A
 Frequencies --   1205.6544              1209.7866              1226.1367
 Red. masses --      3.7881                 2.4009                 1.2791
 Frc consts  --      3.2443                 2.0704                 1.1330
 IR Inten    --      7.5418                 0.1540                 3.3296

                     97                     98                     99
                      A                      A                      A
 Frequencies --   1235.0360              1244.8086              1265.8776
 Red. masses --      4.0153                 2.5157                 1.5454
 Frc consts  --      3.6085                 2.2968                 1.4591
 IR Inten    --      1.4127                 1.7367                 8.1729

                    100                    101                    102
                      A                      A                      A
 Frequencies --   1378.5839              1396.6129              1438.9737
 Red. masses --      7.1723                 1.0469                 1.0419
 Frc consts  --      8.0311                 1.2032                 1.2711
 IR Inten    --      2.3654                 4.7788                 6.1499

                    103                    104                    105
                      A                      A                      A
 Frequencies --   1455.8016              1489.6715              1510.6586
 Red. masses --      9.9145                 6.3348                 6.3998
 Frc consts  --     12.3801                 8.2826                 8.6050
 IR Inten    --    242.7767                 2.4725                10.2838

                    106                    107                    108
                      A                      A                      A
 Frequencies --   1678.6168              1741.5760              1743.4934
 Red. masses --      9.2275                10.1758                 9.4643
 Frc consts  --     15.3193                18.1845                16.9504
 IR Inten    --     23.4468               271.2912                83.5391

                    109                    110                    111
                      A                      A                      A
 Frequencies --   3277.3003              3410.2946              3499.7450
 Red. masses --      1.0393                 1.0925                 1.1119
 Frc consts  --      6.5770                 7.4859                 8.0240
 IR Inten    --     23.5864                24.7642                13.8899

                    112                    113                    114
                      A                      A                      A
 Frequencies --   3591.1057              3695.9438              3762.0414
 Red. masses --      1.0855                 1.0910                 1.0790
 Frc consts  --      8.2475                 8.7810                 8.9978
 IR Inten    --     43.7372                18.4396                 7.0184

                    115                    116                    117
                      A                      A                      A
 Frequencies --   3777.1895              3936.8546              4090.6861
 Red. masses --      1.0912                 1.0809                 1.0674
 Frc consts  --      9.1728                 9.8705                10.5237
 IR Inten    --      2.6900                 7.5285                26.5078

                    118                    119                    120
                      A                      A                      A
 Frequencies --   4160.8286              4200.4052              4288.7286
 Red. masses --      1.0748                 1.0995                 1.0808
 Frc consts  --     10.9627                11.4295                11.7125
 IR Inten    --      9.1154                23.9978                22.3540

                    121                    122                    123
                      A                      A                      A
 Frequencies --   4326.1694              4375.3097              4417.6074
 Red. masses --      1.0904                 1.0689                 1.0893
 Frc consts  --     12.0236                12.0565                12.5243
 IR Inten    --      0.6256                34.2091                 2.2910

                    124                    125                    126
                      A                      A                      A
 Frequencies --   4472.2658              4473.1221              4575.0358
 Red. masses --      1.0754                 1.0799                 1.0619
 Frc consts  --     12.6730                12.7307                13.0960
 IR Inten    --      1.9461                20.4098                16.0813

                    127                    128                    129
                      A                      A                      A
 Frequencies --   4676.1436              4694.7775              4829.5949
 Red. masses --      1.0877                 1.1053                 1.0874
 Frc consts  --     14.0130                14.3533                14.9436
 IR Inten    --     10.4832                14.1599                13.8756

                    130                    131                    132
                      A                      A                      A
 Frequencies --   4843.6649              4873.7724              5209.4436
 Red. masses --      1.0981                 1.0925                 1.0892
 Frc consts  --     15.1794                15.2900                17.4153
 IR Inten    --     10.6328                 5.0112                 2.5238

                    133                    134                    135
                      A                      A                      A
 Frequencies --   5495.5504              5802.2781              7251.6245
 Red. masses --      1.0857                 1.0888                 1.0750
 Frc consts  --     19.3190                21.5974                33.3064
 IR Inten    --      2.4027                 0.2178                10.7998

 - Thermochemistry -
 -------------------
 Temperature   298.150 Kelvin.  Pressure   1.00000 Atm.
 Atom     1 has atomic number  8 and mass  15.99491

 Molecular mass:   275.21234 amu.
 Principal axes and moments of inertia in atomic units:
                           1         2         3
     Eigenvalues --  3225.38870********************
           X            0.99999   0.00395  -0.00197
           Y           -0.00397   0.99994  -0.01011
           Z            0.00193   0.01011   0.99995
 This molecule is an asymmetric top.
 Rotational symmetry number  1.
 Warning -- assumption of classical behavior for rotation
           may cause significant error
 Rotational temperatures (Kelvin)      0.02685     0.00470     0.00424
 Rotational constants (GHZ):           0.55954     0.09792     0.08833
   33 imaginary frequencies ignored.
 Zero-point vibrational energy    1118607.2 (Joules/Mol)
                                  267.35354 (Kcal/Mol)
 Warning -- explicit consideration of  19 degrees of freedom as
           vibrations may cause significant error
 Vibrational temperatures:    107.01   111.79   195.84   264.11   283.37
          (Kelvin)            312.54   386.36   417.50   519.16   529.80
                              554.90   617.34   680.54   743.98   751.86
                              779.50   822.55   862.57   883.85   954.81
                              965.64   995.36  1017.67  1038.50  1060.43
                             1077.35  1084.98  1118.66  1169.74  1193.81
                             1216.41  1224.56  1250.35  1271.43  1275.63
                             1296.90  1331.91  1348.55  1383.54  1400.03
                             1414.79  1418.12  1429.09  1458.30  1487.94
                             1503.91  1515.45  1524.13  1530.78  1562.61
                             1573.82  1601.86  1620.51  1627.42  1634.51
                             1655.92  1678.26  1698.40  1709.90  1731.78
                             1734.67  1740.61  1764.14  1776.94  1791.00
                             1821.32  1983.47  2009.41  2070.36  2094.57
                             2143.30  2173.50  2415.16  2505.74  2508.50
                             4715.30  4906.65  5035.35  5166.80  5317.64
                             5412.74  5434.53  5664.26  5885.58  5986.50
                             6043.45  6170.52  6224.39  6295.09  6355.95
                             6434.59  6435.82  6582.46  6727.93  6754.74
                             6948.71  6968.95  7012.27  7495.23  7906.87
                             8348.18 10433.47

 Zero-point correction=                           0.426055 (Hartree/Particle)
 Thermal correction to Energy=                    0.438650
 Thermal correction to Enthalpy=                  0.439594
 Thermal correction to Gibbs Free Energy=         0.386122
 Sum of electronic and zero-point Energies=           -846.367048
 Sum of electronic and thermal Energies=              -846.354453
 Sum of electronic and thermal Enthalpies=            -846.353509
 Sum of electronic and thermal Free Energies=         -846.406981

                     E (Thermal)             CV                S
                      KCal/Mol        Cal/Mol-Kelvin    Cal/Mol-Kelvin
 Total                  275.257             55.755            112.540
 Electronic               0.000              0.000              0.000
 Translational            0.889              2.981             42.736
 Rotational               0.889              2.981             35.450
 Vibrational            273.479             49.793             34.354
 Vibration     1          0.599              1.966              4.034
 Vibration     2          0.599              1.964              3.948
 Vibration     3          0.614              1.917              2.858
 Vibration     4          0.631              1.862              2.292
 Vibration     5          0.636              1.844              2.161
 Vibration     6          0.646              1.815              1.982
 Vibration     7          0.673              1.731              1.606
 Vibration     8          0.686              1.692              1.473
 Vibration     9          0.735              1.553              1.118
 Vibration    10          0.741              1.538              1.087
 Vibration    11          0.754              1.501              1.017
 Vibration    12          0.790              1.407              0.862
 Vibration    13          0.830              1.310              0.729
 Vibration    14          0.872              1.212              0.617
 Vibration    15          0.878              1.200              0.604
 Vibration    16          0.897              1.158              0.561
 Vibration    17          0.928              1.092              0.501
 Vibration    18          0.958              1.033              0.450
 Vibration    19          0.974              1.002              0.426

 Normal termination of Gaussian 16 at Mon Mar  6 11:38:00 2023.
