 Gaussian 16, Revision C.01,
 Gaussian 16:  ES64L-G16RevC.01  3-Jul-2019

 ----------------------------------------------------------------------
 #p pop=(regular,nbo,savenbos) freq=noraman def2svp empiricaldispersion
 =gd3bj output=wfx pbe1pbe
 ----------------------------------------------------------------------

 ----------------------------------------
 HEZFAT_Complex_1_Ligand_0_NN_Cu_oriented
 ----------------------------------------
 Symbolic Z-matrix:
 Charge = -1 Multiplicity = 1

                         Standard orientation:
 ---------------------------------------------------------------------
 Center     Atomic      Atomic             Coordinates (Angstroms)
 Number     Number       Type             X           Y           Z
 ---------------------------------------------------------------------
      1          7           0       -1.867093   -1.592224   -0.408294
      2          6           0       -2.816626   -2.717241   -0.316024
      3          6           0       -4.184784   -2.129054   -0.132014
      4          6           0       -3.900814   -0.712812    0.380984
      5          6           0       -2.460981   -0.485480   -0.003637
      6          6           0       -1.860227    0.788279    0.049176
      7          6           0       -0.510477    1.051990   -0.307273
      8          6           0        0.135618    2.402108   -0.089077
      9          6           0        1.512897    2.248900   -0.677807
     10          6           0        1.658697    0.746213   -0.970505
     11          7           0        0.289440    0.201812   -0.837571
     12          6           0       -2.629787    1.881705    0.519200
     13          7           0       -3.233689    2.762820    0.890378
     14          6           0        2.542480    0.080653    0.046728
     15          8           0        2.223654   -0.137228    1.180612
     16          8           0        3.745318   -0.127780   -0.413959
     17          6           0        4.699830   -0.728828    0.476572
     18          1           0       -2.781971   -3.217254   -1.135082
     19          1           0       -4.671549   -2.083447   -0.959023
     20          1           0       -4.469677   -0.063355   -0.038791
     21          1           0       -4.029158   -0.681882    1.332167
     22          1           0       -0.351013    3.062180   -0.586138
     23          1           0        0.159466    2.651238    0.838444
     24          1           0        1.587718    2.700370   -1.521874
     25          1           0        2.139340    2.625030   -0.055276
     26          1           0        2.158089    0.497074   -1.751617
     27          1           0        4.557905   -0.435268    1.379601
     28          6           0        4.475139   -2.190863    0.429737
     29          1           0        5.124519   -2.570272    1.025777
     30          1           0        4.628435   -2.517440   -0.459751
     31          1           0       -2.584247   -3.288005    0.418517
     32          1           0        5.593450   -0.509502    0.205622
     33          1           0        3.592890   -2.443207    0.714227
     34          1           0       -4.692354   -2.626475    0.512023
 ---------------------------------------------------------------------

 SCF Done:  E(RPBE1PBE) =  -817.961993267     A.U. after   15 cycles

 The electronic state is 1-A.
 Alpha  occ. eigenvalues --  -19.14762 -19.06465 -14.19487 -14.18841 -14.18038
 Alpha  occ. eigenvalues --  -10.22141 -10.17135 -10.11192 -10.10500 -10.10005
 Alpha  occ. eigenvalues --  -10.09929 -10.08941 -10.08109 -10.07104 -10.06412
 Alpha  occ. eigenvalues --  -10.06324 -10.05985 -10.05818  -1.02809  -0.91421
 Alpha  occ. eigenvalues --   -0.79889  -0.77930  -0.75314  -0.73625  -0.66964
 Alpha  occ. eigenvalues --   -0.65313  -0.64249  -0.62977  -0.60160  -0.56608
 Alpha  occ. eigenvalues --   -0.52437  -0.49362  -0.48732  -0.44132  -0.42537
 Alpha  occ. eigenvalues --   -0.40411  -0.39705  -0.39281  -0.38656  -0.37308
 Alpha  occ. eigenvalues --   -0.36082  -0.35137  -0.35055  -0.33933  -0.31637
 Alpha  occ. eigenvalues --   -0.30989  -0.30053  -0.28479  -0.27595  -0.26978
 Alpha  occ. eigenvalues --   -0.26112  -0.25687  -0.24968  -0.23912  -0.22321
 Alpha  occ. eigenvalues --   -0.21681  -0.21449  -0.20464  -0.20003  -0.17971
 Alpha  occ. eigenvalues --   -0.16969  -0.15423  -0.12235  -0.10562  -0.06456
 Alpha  occ. eigenvalues --   -0.02540
 Alpha virt. eigenvalues --    0.14571   0.17144   0.17794   0.20282   0.20524
 Alpha virt. eigenvalues --    0.21365   0.21959   0.22692   0.22958   0.23839
 Alpha virt. eigenvalues --    0.24428   0.24552   0.25322   0.25718   0.26798

 Mulliken charges:
               1
     1  N   -0.309503
     2  C    0.306275
     3  C    0.014057
     4  C    0.242123
     5  C   -0.220310
     6  C   -0.051934
     7  C   -0.195390
     8  C    0.257302
     9  C    0.155591
    10  C    0.083211
    11  N   -0.231312
    12  C   -0.229229
    13  N   -0.099534
    14  C    0.207158
    15  O   -0.268571
    16  O   -0.337829
    17  C    0.286609
    18  H   -0.073500
    19  H   -0.046765
    20  H   -0.040846
    21  H   -0.040014
    22  H   -0.042487
    23  H   -0.029827
    24  H   -0.045747
    25  H   -0.057872
    26  H   -0.079493
    27  H   -0.028058
    28  C    0.093798
    29  H   -0.039492
    30  H   -0.015492
    31  H   -0.062302
    32  H   -0.040865
    33  H    0.011258
    34  H   -0.071011
 Sum of Mulliken charges =  -1.00000

 Dipole moment (field-independent basis, Debye):
    X=              8.3398    Y=             -2.8140    Z=             -0.8393  Tot=              8.8417
 Quadrupole moment (field-independent basis, Debye-Ang):
   XX=           -126.3518   YY=           -125.3154   ZZ=           -112.7029
   XY=             13.5593   XZ=              4.9378   YZ=             -7.3923

  Exact polarizability:     191.168      -2.057     167.748     -13.315       8.347     102.742
 Approx polarizability:     231.663     -24.403     241.945     -30.448      23.779     164.522

 Summary of Natural Population Analysis:

                                       Natural Population
                Natural  -----------------------------------------------
    Atom  No    Charge         Core      Valence    Rydberg      Total
 -----------------------------------------------------------------------
      N    1   -0.55264      1.99935     5.53777    0.01552     7.55264
      C    2   -0.15617      1.99908     4.14178    0.01531     6.15617
      C    3   -0.37620      1.99913     4.36567    0.01140     6.37620
      C    4   -0.40125      1.99905     4.38975    0.01245     6.40125
      C    5    0.26834      1.99909     3.70324    0.02932     5.73166
      C    6   -0.40881      1.99867     4.39040    0.01973     6.40881
      C    7    0.29885      1.99907     3.67085    0.03123     5.70115
      C    8   -0.40140      1.99906     4.38908    0.01326     6.40140
      C    9   -0.37132      1.99909     4.35785    0.01438     6.37132
      C   10   -0.08877      1.99887     4.06612    0.02378     6.08877
      N   11   -0.55135      1.99926     5.53440    0.01769     7.55135
      C   12    0.31328      1.99923     3.64637    0.04111     5.68672
      N   13   -0.49417      1.99955     5.46817    0.02646     7.49417
      C   14    0.86296      1.99931     3.07476    0.06298     5.13704
      O   15   -0.63917      1.99970     6.62831    0.01115     8.63917
      O   16   -0.59023      1.99961     6.57940    0.01121     8.59023
      C   17    0.02833      1.99888     3.95691    0.01588     5.97167
      H   18    0.15879      0.00000     0.83733    0.00388     0.84121
      H   19    0.16801      0.00000     0.82818    0.00382     0.83199
      H   20    0.18997      0.00000     0.80628    0.00375     0.81003
      H   21    0.18480      0.00000     0.81122    0.00398     0.81520
      H   22    0.19335      0.00000     0.80283    0.00382     0.80665
      H   23    0.19226      0.00000     0.80394    0.00381     0.80774
      H   24    0.17909      0.00000     0.81741    0.00350     0.82091
      H   25    0.18115      0.00000     0.81527    0.00358     0.81885
      H   26    0.17183      0.00000     0.82185    0.00632     0.82817
      H   27    0.16438      0.00000     0.82890    0.00672     0.83562
      C   28   -0.55585      1.99917     4.55006    0.00662     6.55585
      H   29    0.17847      0.00000     0.81859    0.00294     0.82153
      H   30    0.17938      0.00000     0.81694    0.00368     0.82062
      H   31    0.15126      0.00000     0.84377    0.00497     0.84874
      H   32    0.15267      0.00000     0.84425    0.00308     0.84733
      H   33    0.20134      0.00000     0.79546    0.00320     0.79866
      H   34    0.16883      0.00000     0.82700    0.00417     0.83117
 =======================================================================
   * Total *   -1.00000     35.98517    95.57013    0.44469   132.00000

 ******   26 imaginary frequencies (negative Signs) ******

                      1                      2                      3
                      A                      A                      A
 Frequencies --  -1384.2150             -1202.4240             -1192.7023
 Red. masses --      1.0106                 1.0406                 1.0410
 Frc consts  --      1.1409                 0.8864                 0.8725
 IR Inten    --      0.1326                 3.5538                 6.1175

                      4                      5                      6
                      A                      A                      A
 Frequencies --  -1178.0737             -1163.7306             -1144.9319
 Red. masses --      1.0244                 1.0346                 1.0343
 Frc consts  --      0.8376                 0.8255                 0.7988
 IR Inten    --      1.8856                 0.9488                 0.2918

                      7                      8                      9
                      A                      A                      A
 Frequencies --  -1132.8602             -1003.4303              -994.2166
 Red. masses --      1.0379                 1.0525                 1.0639
 Frc consts  --      0.7848                 0.6244                 0.6196
 IR Inten    --      7.5811                 6.2160                 1.2152

                     10                     11                     12
                      A                      A                      A
 Frequencies --   -767.5496              -718.2793              -712.4005
 Red. masses --      1.1113                 1.1200                 1.2721
 Frc consts  --      0.3858                 0.3405                 0.3804
 IR Inten    --      0.4522                 2.9231                12.8732

                     13                     14                     15
                      A                      A                      A
 Frequencies --   -694.8900              -688.4515              -644.8617
 Red. masses --      1.1745                 1.2398                 1.1776
 Frc consts  --      0.3341                 0.3462                 0.2885
 IR Inten    --      1.6824                 5.1080                 6.7389

                     16                     17                     18
                      A                      A                      A
 Frequencies --   -604.5103              -573.6667              -517.3581
 Red. masses --      1.0906                 1.0953                 1.5947
 Frc consts  --      0.2348                 0.2124                 0.2515
 IR Inten    --      8.0516                 1.0927                 1.9781

                     19                     20                     21
                      A                      A                      A
 Frequencies --   -498.5700              -492.5309              -468.5074
 Red. masses --      1.1449                 1.4166                 1.6308
 Frc consts  --      0.1677                 0.2025                 0.2109
 IR Inten    --     29.9161                 8.8353                 6.4561

                     22                     23                     24
                      A                      A                      A
 Frequencies --   -414.5481              -332.9135              -233.2221
 Red. masses --      1.8383                 2.0036                12.0227
 Frc consts  --      0.1861                 0.1308                 0.3853
 IR Inten    --     14.1670                 2.1162                 6.9414

                     25                     26                     27
                      A                      A                      A
 Frequencies --   -130.5056               -86.5861               111.7898
 Red. masses --      5.9018                 8.3913                 6.8227
 Frc consts  --      0.0592                 0.0371                 0.0502
 IR Inten    --      4.0448                 2.4817                 1.8618

                     28                     29                     30
                      A                      A                      A
 Frequencies --    215.3867               256.5895               324.5841
 Red. masses --      7.1679                 7.0796                 6.1014
 Frc consts  --      0.1959                 0.2746                 0.3787
 IR Inten    --      0.9233                 0.9459                 1.2548

                     31                     32                     33
                      A                      A                      A
 Frequencies --    375.4214               444.4081               455.8386
 Red. masses --      5.2083                 6.8037                 6.6939
 Frc consts  --      0.4325                 0.7917                 0.8195
 IR Inten    --      5.9280                 2.4547                 3.6048

                     34                     35                     36
                      A                      A                      A
 Frequencies --    470.7541               479.5371               497.1499
 Red. masses --      1.1205                 3.5376                 8.9241
 Frc consts  --      0.1463                 0.4793                 1.2995
 IR Inten    --     24.5785                 6.6080                11.1971

                     37                     38                     39
                      A                      A                      A
 Frequencies --    528.3997               562.4485               570.0484
 Red. masses --      4.4566                 4.2481                 2.6771
 Frc consts  --      0.7331                 0.7918                 0.5125
 IR Inten    --      0.8632                 4.0011                 5.7890

                     40                     41                     42
                      A                      A                      A
 Frequencies --    594.9352               654.2481               696.8801
 Red. masses --      5.8788                 2.3694                 3.8820
 Frc consts  --      1.2260                 0.5975                 1.1108
 IR Inten    --     11.1383                14.5888                53.5706

                     43                     44                     45
                      A                      A                      A
 Frequencies --    727.2083               736.2525               756.3590
 Red. masses --      3.1862                 3.7954                 5.1202
 Frc consts  --      0.9928                 1.2122                 1.7258
 IR Inten    --      2.2505                 5.6058                10.1765

                     46                     47                     48
                      A                      A                      A
 Frequencies --    777.6544               792.7123               803.2873
 Red. masses --      4.0224                 2.4211                 3.0748
 Frc consts  --      1.4332                 0.8964                 1.1690
 IR Inten    --      6.8076                 1.6836                 0.8354

                     49                     50                     51
                      A                      A                      A
 Frequencies --    833.7796               842.9778               853.5410
 Red. masses --      2.4091                 2.4491                 2.3406
 Frc consts  --      0.9868                 1.0254                 1.0047
 IR Inten    --      1.7952                 0.3919                 4.2773

                     52                     53                     54
                      A                      A                      A
 Frequencies --    859.8470               867.9965               872.1568
 Red. masses --      2.3194                 3.3256                 2.2312
 Frc consts  --      1.0103                 1.4763                 0.9999
 IR Inten    --      4.5035                 3.1769                 3.9700

                     55                     56                     57
                      A                      A                      A
 Frequencies --    875.8442               887.5852               904.5332
 Red. masses --      2.1472                 1.2342                 1.8604
 Frc consts  --      0.9705                 0.5729                 0.8968
 IR Inten    --      2.0089                22.7553                18.5132

                     58                     59                     60
                      A                      A                      A
 Frequencies --    914.8312               934.6108               939.8691
 Red. masses --      1.1946                 2.4148                 2.7618
 Frc consts  --      0.5891                 1.2428                 1.4374
 IR Inten    --      3.0069                 8.9436                20.3556

                     61                     62                     63
                      A                      A                      A
 Frequencies --    974.7521               990.5684              1023.6315
 Red. masses --      2.4807                 2.9091                 1.9693
 Frc consts  --      1.3887                 1.6818                 1.2157
 IR Inten    --     16.6696                18.1448                33.0003

                     64                     65                     66
                      A                      A                      A
 Frequencies --   1033.7942              1049.2777              1064.5591
 Red. masses --      1.8168                 2.8252                 3.3220
 Frc consts  --      1.1440                 1.8326                 2.2181
 IR Inten    --      9.6776                20.9648                 6.0816

                     67                     68                     69
                      A                      A                      A
 Frequencies --   1080.4347              1096.7571              1147.8974
 Red. masses --      4.4627                 1.7905                 5.1383
 Frc consts  --      3.0693                 1.2690                 3.9891
 IR Inten    --      2.6622                 6.9543                 5.5347

                     70                     71                     72
                      A                      A                      A
 Frequencies --   1170.2861              1177.6845              1196.1868
 Red. masses --      5.4627                 5.8920                 5.5990
 Frc consts  --      4.4080                 4.8147                 4.7202
 IR Inten    --     12.7118                 6.6225                26.9894

                     73                     74                     75
                      A                      A                      A
 Frequencies --   1244.2899              1394.5726              1441.7872
 Red. masses --     11.0470                11.1417                11.2365
 Frc consts  --     10.0771                12.7669                13.7621
 IR Inten    --      5.5889                11.5102               584.3240

                     76                     77                     78
                      A                      A                      A
 Frequencies --   1520.8426              1631.4593              1739.5173
 Red. masses --     11.0838                11.6204                11.9138
 Frc consts  --     15.1045                18.2231                21.2401
 IR Inten    --     48.8010               664.4124               513.8460

                     79                     80                     81
                      A                      A                      A
 Frequencies --   1937.2352              2581.4266              4469.1094
 Red. masses --     11.7911                12.7064                 1.0331
 Frc consts  --     26.0716                49.8877                12.1571
 IR Inten    --    186.6798               358.2326                11.1952

                     82                     83                     84
                      A                      A                      A
 Frequencies --   4527.9419              4533.2677              4534.3453
 Red. masses --      1.0572                 1.0580                 1.0583
 Frc consts  --     12.7704                12.8104                12.8197
 IR Inten    --     28.0250                21.4809                54.4841

                     85                     86                     87
                      A                      A                      A
 Frequencies --   4541.1143              4543.7367              4556.8752
 Red. masses --      1.0600                 1.0597                 1.0586
 Frc consts  --     12.8790                12.8907                12.9509
 IR Inten    --     40.2054                11.0766                24.3534

                     88                     89                     90
                      A                      A                      A
 Frequencies --   4608.5884              4660.7280              4669.1729
 Red. masses --      1.0871                 1.1122                 1.1113
 Frc consts  --     13.6037                14.2339                14.2751
 IR Inten    --     30.5075                 5.2989                 3.1116

                     91                     92                     93
                      A                      A                      A
 Frequencies --   4669.8816              4674.8225              4677.2058
 Red. masses --      1.1109                 1.1058                 1.1081
 Frc consts  --     14.2732                14.2385                14.2821
 IR Inten    --      6.8010                 7.7858                 0.9384

                     94                     95                     96
                      A                      A                      A
 Frequencies --   4677.4173              4681.2465              4693.1901
 Red. masses --      1.1097                 1.1098                 1.1111
 Frc consts  --     14.3047                14.3287                14.4189
 IR Inten    --     25.7580                 5.8803                 3.6722

 - Thermochemistry -
 -------------------
 Temperature   298.150 Kelvin.  Pressure   1.00000 Atm.
 Atom     1 has atomic number  7 and mass  14.00307

 Molecular mass:   246.12425 amu.
 Principal axes and moments of inertia in atomic units:
                           1         2         3
     Eigenvalues --  2624.666527659.442549624.80317
           X            0.99994   0.01006   0.00302
           Y           -0.01002   0.99988  -0.01184
           Z           -0.00314   0.01181   0.99993
 This molecule is an asymmetric top.
 Rotational symmetry number  1.
 Warning -- assumption of classical behavior for rotation
           may cause significant error
 Rotational temperatures (Kelvin)      0.03300     0.01131     0.00900
 Rotational constants (GHZ):           0.68761     0.23562     0.18751
   26 imaginary frequencies ignored.
 Zero-point vibrational energy     733520.6 (Joules/Mol)
                                  175.31563 (Kcal/Mol)
 Warning -- explicit consideration of  14 degrees of freedom as
           vibrations may cause significant error
 Vibrational temperatures:    160.84   309.89   369.18   467.00   540.15
          (Kelvin)            639.40   655.85   677.31   689.95   715.29
                              760.25   809.24   820.17   855.98   941.32
                             1002.66  1046.29  1059.30  1088.23  1118.87
                             1140.54  1155.75  1199.62  1212.86  1228.06
                             1237.13  1248.85  1254.84  1260.14  1277.04
                             1301.42  1316.24  1344.70  1352.26  1402.45
                             1425.21  1472.78  1487.40  1509.68  1531.66
                             1554.50  1577.99  1651.57  1683.78  1694.43
                             1721.05  1790.26  2006.48  2074.41  2188.15
                             2347.31  2502.78  2787.25  3714.10  6430.05
                             6514.70  6522.36  6523.91  6533.65  6537.42
                             6556.33  6630.73  6705.75  6717.90  6718.92
                             6726.03  6729.46  6729.76  6735.27  6752.45

 Zero-point correction=                           0.279383 (Hartree/Particle)
 Thermal correction to Energy=                    0.288481
 Thermal correction to Enthalpy=                  0.289426
 Thermal correction to Gibbs Free Energy=         0.243855
 Sum of electronic and zero-point Energies=           -817.682610
 Sum of electronic and thermal Energies=              -817.673512
 Sum of electronic and thermal Enthalpies=            -817.672568
 Sum of electronic and thermal Free Energies=         -817.718138

                     E (Thermal)             CV                S
                      KCal/Mol        Cal/Mol-Kelvin    Cal/Mol-Kelvin
 Total                  181.025             42.116             95.910
 Electronic               0.000              0.000              0.000
 Translational            0.889              2.981             42.403
 Rotational               0.889              2.981             33.625
 Vibrational            179.247             36.155             19.883
 Vibration     1          0.607              1.940              3.238
 Vibration     2          0.645              1.818              1.998
 Vibration     3          0.666              1.752              1.685
 Vibration     4          0.709              1.626              1.287
 Vibration     5          0.746              1.522              1.058
 Vibration     6          0.804              1.373              0.813
 Vibration     7          0.814              1.348              0.778
 Vibration     8          0.828              1.315              0.735
 Vibration     9          0.836              1.295              0.711
 Vibration    10          0.853              1.256              0.665
 Vibration    11          0.883              1.187              0.591
 Vibration    12          0.918              1.113              0.519
 Vibration    13          0.926              1.096              0.504
 Vibration    14          0.953              1.043              0.458

 Normal termination of Gaussian 16 at Mon Mar  6 11:03:44 2023.
