 Gaussian 16, Revision C.01,
 Gaussian 16:  ES64L-G16RevC.01  3-Jul-2019

 ----------------------------------------------------------------------
 #p pop=(regular,nbo,savenbos) freq=noraman def2svp empiricaldispersion
 =gd3bj output=wfx pbe1pbe
 ----------------------------------------------------------------------

 ----------------------------------------
 HIHNAO_Complex_6_Ligand_1_NN_Cu_oriented
 ----------------------------------------
 Symbolic Z-matrix:
 Charge =  0 Multiplicity = 1

                         Standard orientation:
 ---------------------------------------------------------------------
 Center     Atomic      Atomic             Coordinates (Angstroms)
 Number     Number       Type             X           Y           Z
 ---------------------------------------------------------------------
      1          6           0       -0.022611    0.735367    0.237753
      2          6           0       -1.399980    0.148612    0.352853
      3          1           0       -1.950386    0.678193    0.967246
      4          6           0       -1.141537   -1.278697    0.933763
      5          1           0       -1.251881   -1.280342    1.897871
      6          1           0       -1.756392   -1.921975    0.547874
      7          6           0        0.038515    1.965400   -0.676917
      8          1           0       -0.106624    1.694692   -1.586529
      9          1           0       -0.640113    2.592597   -0.417189
     10          6           0        0.414458    1.163740    1.652843
     11          1           0       -0.285806    1.678938    2.059780
     12          7           0       -2.089814   -0.023262   -0.945260
     13          1           0       -2.197708    0.794909   -1.302675
     14          1           0       -2.912269   -0.343785   -0.771527
     15          6           0        0.832750   -0.408011   -0.248356
     16          6           0        0.288482   -1.617864    0.560942
     17          1           0        0.315153   -2.424372    0.022409
     18          1           0        0.821574   -1.759701    1.359270
     19          6           0        2.322616   -0.219215   -0.048882
     20          1           0        2.787136   -1.003837   -0.347427
     21          1           0        2.505610   -0.074309    0.882982
     22          1           0        2.619289    0.540745   -0.555282
     23          7           0        0.574127   -0.715619   -1.689210
     24          1           0        1.122378   -1.393036   -1.912930
     25          1           0        0.842731    0.000532   -2.162636
     26          1           0        1.210689    1.695187    1.593654
     27          1           0        0.588900    0.383047    2.183524
     28          1           0        0.901374    2.378688   -0.601115
 ---------------------------------------------------------------------

 SCF Done:  E(RPBE1PBE) =  -424.122129044     A.U. after   12 cycles

 The electronic state is 1-A.
 Alpha  occ. eigenvalues --  -14.31805 -14.31751 -10.24138 -10.22360 -10.22116
 Alpha  occ. eigenvalues --  -10.18151 -10.18048 -10.17763 -10.17704 -10.17174
 Alpha  occ. eigenvalues --   -0.93020  -0.90059  -0.83905  -0.78923  -0.76085
 Alpha  occ. eigenvalues --   -0.73159  -0.68629  -0.66753  -0.59402  -0.53780
 Alpha  occ. eigenvalues --   -0.50855  -0.50823  -0.50276  -0.49081  -0.47074
 Alpha  occ. eigenvalues --   -0.44692  -0.43788  -0.43258  -0.42584  -0.41942
 Alpha  occ. eigenvalues --   -0.41251  -0.39892  -0.35397  -0.34407  -0.33453
 Alpha  occ. eigenvalues --   -0.32771  -0.31936  -0.30996  -0.24870  -0.20428
 Alpha virt. eigenvalues --    0.07280   0.09995   0.10816   0.11841   0.13019
 Alpha virt. eigenvalues --    0.13505   0.14875   0.15242   0.16362   0.17157
 Alpha virt. eigenvalues --    0.17492   0.18512   0.19146   0.20999   0.21161

 Mulliken charges:
               1
     1  C   -0.488200
     2  C    0.018317
     3  H   -0.056068
     4  C    0.211964
     5  H   -0.042385
     6  H   -0.054328
     7  C    0.287785
     8  H   -0.026219
     9  H   -0.034473
    10  C    0.311691
    11  H   -0.037295
    12  N   -0.048631
    13  H    0.025912
    14  H    0.043356
    15  C   -0.416420
    16  C    0.275012
    17  H   -0.057365
    18  H   -0.049541
    19  C    0.329584
    20  H   -0.038139
    21  H   -0.050477
    22  H   -0.046872
    23  N   -0.009389
    24  H    0.037127
    25  H    0.024743
    26  H   -0.032415
    27  H   -0.040590
    28  H   -0.036683
 Sum of Mulliken charges =  -0.00000

 Dipole moment (field-independent basis, Debye):
    X=              0.4578    Y=              1.0760    Z=              0.8485  Tot=              1.4447
 Quadrupole moment (field-independent basis, Debye-Ang):
   XX=            -58.4679   YY=            -61.5809   ZZ=            -63.9388
   XY=             -2.2922   XZ=             -2.8349   YZ=             -1.8292

  Exact polarizability:      85.197       0.693      82.910       0.528      -1.464      81.240
 Approx polarizability:     109.573       1.174     110.771       1.922      -1.770     112.903

 Summary of Natural Population Analysis:

                                       Natural Population
                Natural  -----------------------------------------------
    Atom  No    Charge         Core      Valence    Rydberg      Total
 -----------------------------------------------------------------------
      C    1   -0.06673      1.99883     4.04940    0.01850     6.06673
      C    2    0.01310      1.99888     3.96741    0.02061     5.98690
      H    3    0.15972      0.00000     0.83657    0.00371     0.84028
      C    4   -0.36791      1.99912     4.35386    0.01493     6.36791
      H    5    0.18345      0.00000     0.81332    0.00323     0.81655
      H    6    0.19621      0.00000     0.80039    0.00341     0.80379
      C    7   -0.55695      1.99917     4.54341    0.01436     6.55695
      H    8    0.19187      0.00000     0.80486    0.00327     0.80813
      H    9    0.19137      0.00000     0.80589    0.00274     0.80863
      C   10   -0.54746      1.99916     4.53434    0.01396     6.54746
      H   11    0.19165      0.00000     0.80536    0.00299     0.80835
      N   12   -0.79761      1.99941     5.77535    0.02285     7.79761
      H   13    0.31612      0.00000     0.67843    0.00546     0.68388
      H   14    0.32006      0.00000     0.67460    0.00534     0.67994
      C   15    0.16493      1.99889     3.81424    0.02194     5.83507
      C   16   -0.37550      1.99906     4.35932    0.01713     6.37550
      H   17    0.19914      0.00000     0.79759    0.00328     0.80086
      H   18    0.18361      0.00000     0.81337    0.00302     0.81639
      C   19   -0.57125      1.99912     4.55891    0.01322     6.57125
      H   20    0.18996      0.00000     0.80683    0.00321     0.81004
      H   21    0.18857      0.00000     0.80837    0.00306     0.81143
      H   22    0.18548      0.00000     0.81128    0.00324     0.81452
      N   23   -0.79885      1.99940     5.77512    0.02433     7.79885
      H   24    0.32009      0.00000     0.67465    0.00525     0.67991
      H   25    0.31667      0.00000     0.67794    0.00540     0.68333
      H   26    0.19122      0.00000     0.80630    0.00248     0.80878
      H   27    0.18882      0.00000     0.80882    0.00236     0.81118
      H   28    0.19023      0.00000     0.80722    0.00255     0.80977
 =======================================================================
   * Total *   -0.00000     19.99105    59.76315    0.24580    80.00000

 ******   21 imaginary frequencies (negative Signs) ******

                      1                      2                      3
                      A                      A                      A
 Frequencies --  -1562.2301             -1539.3177             -1383.0808
 Red. masses --      1.0545                 1.0358                 1.0097
 Frc consts  --      1.5163                 1.4461                 1.1379
 IR Inten    --     22.6035                93.7901                 0.1018

                      4                      5                      6
                      A                      A                      A
 Frequencies --  -1374.6593             -1366.6934             -1298.7607
 Red. masses --      1.0119                 1.0151                 1.1520
 Frc consts  --      1.1267                 1.1171                 1.1449
 IR Inten    --      0.0538                 0.1351                72.6614

                      7                      8                      9
                      A                      A                      A
 Frequencies --  -1280.5208             -1078.5860             -1073.2449
 Red. masses --      1.1328                 1.0413                 1.0400
 Frc consts  --      1.0944                 0.7137                 0.7058
 IR Inten    --    205.7977                 2.7748                 1.9922

                     10                     11                     12
                      A                      A                      A
 Frequencies --  -1025.0702             -1002.8538              -992.4249
 Red. masses --      1.1072                 1.0510                 1.0639
 Frc consts  --      0.6854                 0.6228                 0.6174
 IR Inten    --      5.9473                 2.4081                 2.1479

                     13                     14                     15
                      A                      A                      A
 Frequencies --   -982.6006              -978.3786              -966.3382
 Red. masses --      1.0555                 1.0387                 1.0238
 Frc consts  --      0.6004                 0.5858                 0.5633
 IR Inten    --      2.1923                 2.5425                 0.2155

                     16                     17                     18
                      A                      A                      A
 Frequencies --   -949.5430              -915.4989              -516.8975
 Red. masses --      1.0740                 1.0965                 1.2060
 Frc consts  --      0.5706                 0.5415                 0.1898
 IR Inten    --      1.1975                 7.0650                 0.4525

                     19                     20                     21
                      A                      A                      A
 Frequencies --   -435.8525              -329.5638              -167.2270
 Red. masses --      1.4252                 1.4548                 1.1568
 Frc consts  --      0.1595                 0.0931                 0.0191
 IR Inten    --      1.4853                 3.5122                 1.6917

                     22                     23                     24
                      A                      A                      A
 Frequencies --    118.3038               243.7130               317.4645
 Red. masses --      2.8319                 1.4443                 1.2156
 Frc consts  --      0.0234                 0.0505                 0.0722
 IR Inten    --      1.1789                 3.4541                21.6252

                     25                     26                     27
                      A                      A                      A
 Frequencies --    369.6750               402.4491               409.4876
 Red. masses --      1.1692                 1.4785                 2.5802
 Frc consts  --      0.0941                 0.1411                 0.2549
 IR Inten    --     16.3229                19.6050                 5.3215

                     28                     29                     30
                      A                      A                      A
 Frequencies --    450.2953               470.3960               484.8584
 Red. masses --      4.9473                 3.9748                 4.3119
 Frc consts  --      0.5910                 0.5182                 0.5972
 IR Inten    --      1.7251                 0.2491                 1.7884

                     31                     32                     33
                      A                      A                      A
 Frequencies --    529.0405               565.8854               581.2629
 Red. masses --      4.6800                 3.3736                 3.1856
 Frc consts  --      0.7717                 0.6365                 0.6341
 IR Inten    --      6.6740                 3.1275                 2.5997

                     34                     35                     36
                      A                      A                      A
 Frequencies --    649.2525               665.7059               688.1488
 Red. masses --      3.7824                 4.0361                 3.7845
 Frc consts  --      0.9394                 1.0538                 1.0559
 IR Inten    --      1.5779                 3.9332                 3.8510

                     37                     38                     39
                      A                      A                      A
 Frequencies --    719.0620               788.7249               816.1063
 Red. masses --      3.2407                 1.7737                 4.8643
 Frc consts  --      0.9872                 0.6501                 1.9088
 IR Inten    --      5.5336                 0.9230                 2.1852

                     40                     41                     42
                      A                      A                      A
 Frequencies --    853.1476               888.3357               948.1355
 Red. masses --      2.1540                 2.6726                 1.1111
 Frc consts  --      0.9237                 1.2426                 0.5885
 IR Inten    --     43.7312                 2.0094                14.8784

                     43                     44                     45
                      A                      A                      A
 Frequencies --    951.9768               962.3210               966.4041
 Red. masses --      1.2430                 1.1050                 1.2360
 Frc consts  --      0.6637                 0.6029                 0.6801
 IR Inten    --      4.1625                 7.8562                30.9977

                     46                     47                     48
                      A                      A                      A
 Frequencies --    975.2446               987.0775               994.7029
 Red. masses --      1.1798                 1.0685                 1.1187
 Frc consts  --      0.6611                 0.6134                 0.6522
 IR Inten    --     29.2676                 1.7523                12.8559

                     49                     50                     51
                      A                      A                      A
 Frequencies --   1006.1979              1020.7287              1055.4484
 Red. masses --      1.0947                 1.1465                 1.3416
 Frc consts  --      0.6530                 0.7038                 0.8806
 IR Inten    --     12.2004                 7.8000                21.1668

                     52                     53                     54
                      A                      A                      A
 Frequencies --   1094.1315              1124.9435              1131.5496
 Red. masses --      2.6818                 3.7093                 3.8542
 Frc consts  --      1.8916                 2.7657                 2.9076
 IR Inten    --      4.0932                10.6686                 1.3660

                     55                     56                     57
                      A                      A                      A
 Frequencies --   1157.6510              1194.4728              1252.1971
 Red. masses --      3.4493                 4.1102                 6.2423
 Frc consts  --      2.7236                 3.4551                 5.7669
 IR Inten    --      5.2399                 0.9537                11.2400

                     58                     59                     60
                      A                      A                      A
 Frequencies --   1262.8637              1359.0009              1414.0423
 Red. masses --      5.4028                 6.1558                 5.8255
 Frc consts  --      5.0767                 6.6985                 6.8630
 IR Inten    --      2.5696                 5.2056                 4.4920

                     61                     62                     63
                      A                      A                      A
 Frequencies --   4334.2393              4412.2117              4421.5997
 Red. masses --      1.0875                 1.0590                 1.0606
 Frc consts  --     12.0367                12.1471                12.2172
 IR Inten    --     38.6202                14.8867                15.9530

                     64                     65                     66
                      A                      A                      A
 Frequencies --   4462.4428              4468.0850              4470.6394
 Red. masses --      1.0321                 1.0320                 1.0320
 Frc consts  --     12.1097                12.1383                12.1521
 IR Inten    --      7.8897                 9.0601                 8.3013

                     67                     68                     69
                      A                      A                      A
 Frequencies --   4536.7198              4548.1042              4666.4693
 Red. masses --      1.1108                 1.1094                 1.1062
 Frc consts  --     13.4697                13.5201                14.1926
 IR Inten    --      0.5560                 9.9069                 7.1113

                     70                     71                     72
                      A                      A                      A
 Frequencies --   4674.6900              4675.3588              4675.7404
 Red. masses --      1.1068                 1.1069                 1.1067
 Frc consts  --     14.2505                14.2557                14.2557
 IR Inten    --      5.3439                 4.1162                 4.0309

                     73                     74                     75
                      A                      A                      A
 Frequencies --   4676.2107              4682.6687              5116.7207
 Red. masses --      1.1064                 1.1067                 1.0514
 Frc consts  --     14.2547                14.2979                16.2188
 IR Inten    --      3.6285                 4.9243                 0.8979

                     76                     77                     78
                      A                      A                      A
 Frequencies --   5119.4687              5244.3732              5247.4607
 Red. masses --      1.0515                 1.0935                 1.0938
 Frc consts  --     16.2364                17.7197                17.7451
 IR Inten    --      1.4412                 3.7509                 4.9765

 - Thermochemistry -
 -------------------
 Temperature   298.150 Kelvin.  Pressure   1.00000 Atm.
 Atom     1 has atomic number  6 and mass  12.00000

 Molecular mass:   142.14700 amu.
 Principal axes and moments of inertia in atomic units:
                           1         2         3
     Eigenvalues --  1112.599871325.420591429.53216
           X            0.99996  -0.00532  -0.00674
           Y            0.00495   0.99855  -0.05363
           Z            0.00701   0.05359   0.99854
 This molecule is an asymmetric top.
 Rotational symmetry number  1.
 Warning -- assumption of classical behavior for rotation
           may cause significant error
 Rotational temperatures (Kelvin)      0.07785     0.06535     0.06059
 Rotational constants (GHZ):           1.62209     1.36164     1.26247
   21 imaginary frequencies ignored.
 Zero-point vibrational energy     695650.1 (Joules/Mol)
                                  166.26435 (Kcal/Mol)
 Warning -- explicit consideration of  12 degrees of freedom as
           vibrations may cause significant error
 Vibrational temperatures:    170.21   350.65   456.76   531.88   579.03
          (Kelvin)            589.16   647.87   676.79   697.60   761.17
                              814.18   836.31   934.13   957.80   990.09
                             1034.57  1134.80  1174.19  1227.49  1278.12
                             1364.16  1369.68  1384.57  1390.44  1403.16
                             1420.18  1431.16  1447.69  1468.60  1518.55
                             1574.21  1618.54  1628.05  1665.60  1718.58
                             1801.63  1816.98  1955.30  2034.49  6236.00
                             6348.19  6361.70  6420.46  6428.58  6432.25
                             6527.33  6543.71  6714.01  6725.84  6726.80
                             6727.35  6728.02  6737.32  7361.82  7365.77
                             7545.48  7549.93

 Zero-point correction=                           0.264959 (Hartree/Particle)
 Thermal correction to Energy=                    0.272934
 Thermal correction to Enthalpy=                  0.273878
 Thermal correction to Gibbs Free Energy=         0.232865
 Sum of electronic and zero-point Energies=           -423.857170
 Sum of electronic and thermal Energies=              -423.849195
 Sum of electronic and thermal Enthalpies=            -423.848251
 Sum of electronic and thermal Free Energies=         -423.889264

                     E (Thermal)             CV                S
                      KCal/Mol        Cal/Mol-Kelvin    Cal/Mol-Kelvin
 Total                  171.269             34.664             86.320
 Electronic               0.000              0.000              0.000
 Translational            0.889              2.981             40.766
 Rotational               0.889              2.981             29.135
 Vibrational            169.491             28.703             16.419
 Vibration     1          0.608              1.934              3.128
 Vibration     2          0.659              1.773              1.776
 Vibration     3          0.704              1.640              1.323
 Vibration     4          0.742              1.535              1.081
 Vibration     5          0.768              1.465              0.954
 Vibration     6          0.774              1.450              0.928
 Vibration     7          0.809              1.360              0.795
 Vibration     8          0.827              1.316              0.736
 Vibration     9          0.841              1.284              0.697
 Vibration    10          0.884              1.186              0.589
 Vibration    11          0.922              1.105              0.512
 Vibration    12          0.938              1.072              0.483

 Normal termination of Gaussian 16 at Sat Mar  4 11:49:05 2023.
