 Gaussian 16, Revision C.01,
 Gaussian 16:  ES64L-G16RevC.01  3-Jul-2019

 ----------------------------------------------------------------------
 #p pop=(regular,nbo,savenbos) freq=noraman def2svp empiricaldispersion
 =gd3bj output=wfx pbe1pbe
 ----------------------------------------------------------------------

 ----------------------------------------
 HISTCV_Complex_4_Ligand_2_NN_Cu_oriented
 ----------------------------------------
 Symbolic Z-matrix:
 Charge = -1 Multiplicity = 1

                         Standard orientation:
 ---------------------------------------------------------------------
 Center     Atomic      Atomic             Coordinates (Angstroms)
 Number     Number       Type             X           Y           Z
 ---------------------------------------------------------------------
      1          7           0        1.374815    1.016156   -0.221629
      2          6           0        2.467964    0.493436   -0.765013
      3          7           0        2.724762   -0.704386   -0.270023
      4          1           0        3.014783    0.903509   -1.316403
      5          1           0        3.322549   -1.083655   -0.530965
      6          6           0       -0.320016    0.277090    1.450603
      7          6           0        0.913172    0.064346    0.667529
      8          6           0        1.762364   -0.987072    0.618285
      9          1           0       -0.233421    1.060390    2.020842
     10          1           0       -0.508093   -0.442961    1.948002
     11          1           0        1.675491   -1.621042    1.047750
     12          6           0       -1.535699    0.544846    0.555269
     13          6           0       -1.771826   -0.618145   -0.384727
     14          8           0       -2.198373   -1.651945    0.124907
     15          8           0       -1.525983   -0.432987   -1.591090
     16          1           0       -2.261800    0.599957    1.042494
     17          7           0       -1.363020    1.849575   -0.088059
     18          1           0       -2.173747    2.039959   -0.349355
     19          1           0       -1.292564    1.446875   -0.926600
 ---------------------------------------------------------------------

 SCF Done:  E(RPBE1PBE) =  -546.753365641     A.U. after   14 cycles

 The electronic state is 1-A.
 Alpha  occ. eigenvalues --  -18.93274 -18.92868 -14.30483 -14.22211 -14.15448
 Alpha  occ. eigenvalues --  -10.13054 -10.10216 -10.09539 -10.09041 -10.04275
 Alpha  occ. eigenvalues --  -10.04154  -0.94098  -0.83995  -0.78470  -0.76900
 Alpha  occ. eigenvalues --   -0.73713  -0.67541  -0.63238  -0.55294  -0.52037
 Alpha  occ. eigenvalues --   -0.50614  -0.44967  -0.37747  -0.36580  -0.36132
 Alpha  occ. eigenvalues --   -0.33501  -0.31220  -0.27909  -0.26875  -0.25193
 Alpha  occ. eigenvalues --   -0.23176  -0.20665  -0.18388  -0.17525  -0.15663
 Alpha  occ. eigenvalues --   -0.13984  -0.11272  -0.10270  -0.04862  -0.03877
 Alpha  occ. eigenvalues --   -0.02774
 Alpha virt. eigenvalues --    0.16255   0.19490   0.20965   0.24350   0.25456
 Alpha virt. eigenvalues --    0.26459   0.26903   0.30220   0.31979   0.33814
 Alpha virt. eigenvalues --    0.35523   0.37610   0.38861   0.39990   0.42025

 Mulliken charges:
               1
     1  N   -0.215218
     2  C    0.254050
     3  N    0.085909
     4  H   -0.159708
     5  H   -0.073449
     6  C    0.474316
     7  C   -0.193375
     8  C    0.360982
     9  H   -0.060550
    10  H   -0.137831
    11  H   -0.353880
    12  C   -0.049618
    13  C    0.111078
    14  O   -0.422768
    15  O   -0.432145
    16  H   -0.142105
    17  N   -0.039307
    18  H   -0.010535
    19  H    0.004154
 Sum of Mulliken charges =  -1.00000

 Dipole moment (field-independent basis, Debye):
    X=              8.1727    Y=              0.5797    Z=              2.3963  Tot=              8.5365
 Quadrupole moment (field-independent basis, Debye-Ang):
   XX=            -68.7836   YY=            -79.3836   ZZ=            -70.5403
   XY=            -15.7912   XZ=             -7.3074   YZ=             -2.2072

  Exact polarizability:      79.432      -3.150      71.796      -7.912      -6.462      67.992
 Approx polarizability:     105.629      -6.096     114.700     -15.965     -15.139     106.833

 Summary of Natural Population Analysis:

                                       Natural Population
                Natural  -----------------------------------------------
    Atom  No    Charge         Core      Valence    Rydberg      Total
 -----------------------------------------------------------------------
      N    1   -0.52153      1.99941     5.50539    0.01673     7.52153
      C    2    0.25892      1.99925     3.71156    0.03027     5.74108
      N    3   -0.43010      1.99903     5.41433    0.01675     7.43010
      H    4    0.10873      0.00000     0.88901    0.00226     0.89127
      H    5    0.28593      0.00000     0.70922    0.00485     0.71407
      C    6   -0.38422      1.99885     4.36651    0.01886     6.38422
      C    7    0.16671      1.99921     3.80477    0.02931     5.83329
      C    8    0.00127      1.99832     3.97628    0.02413     5.99873
      H    9    0.19519      0.00000     0.79929    0.00552     0.80481
      H   10    0.16829      0.00000     0.82505    0.00666     0.83171
      H   11    0.08543      0.00000     0.91184    0.00273     0.91457
      C   12   -0.03985      1.99866     4.01409    0.02710     6.03985
      C   13    0.77741      1.99942     3.14951    0.07366     5.22259
      O   14   -0.79003      1.99974     6.77999    0.01030     8.79003
      O   15   -0.80036      1.99974     6.79096    0.00966     8.80036
      H   16    0.11620      0.00000     0.87567    0.00814     0.88380
      N   17   -0.85772      1.99945     5.83488    0.02339     7.85772
      H   18    0.29675      0.00000     0.69532    0.00793     0.70325
      H   19    0.36301      0.00000     0.62315    0.01384     0.63699
 =======================================================================
   * Total *   -1.00000     21.99108    59.67683    0.33209    82.00000

 ******   16 imaginary frequencies (negative Signs) ******

                      1                      2                      3
                      A                      A                      A
 Frequencies --  -3246.4753             -3224.9457             -2939.8539
 Red. masses --      1.0854                 1.0814                 1.0683
 Frc consts  --      6.7400                 6.6265                 5.4401
 IR Inten    --    129.5617                12.9468                11.6789

                      4                      5                      6
                      A                      A                      A
 Frequencies --  -2823.8586             -1945.3899             -1706.7896
 Red. masses --      1.0683                 1.0788                 1.0693
 Frc consts  --      5.0192                 2.4055                 1.8354
 IR Inten    --     21.3778                21.7944               102.9991

                      7                      8                      9
                      A                      A                      A
 Frequencies --  -1645.6669             -1583.3914             -1553.2465
 Red. masses --      1.0839                 1.0722                 1.0708
 Frc consts  --      1.7294                 1.5838                 1.5221
 IR Inten    --     18.3993                15.6687                14.9885

                     10                     11                     12
                      A                      A                      A
 Frequencies --  -1479.6902             -1342.0209             -1307.9555
 Red. masses --      1.0613                 1.1003                 1.0841
 Frc consts  --      1.3691                 1.1676                 1.0927
 IR Inten    --      3.6960                14.3493                18.6854

                     13                     14                     15
                      A                      A                      A
 Frequencies --   -503.3107              -367.2973              -116.1902
 Red. masses --      1.5071                 1.6652                14.0748
 Frc consts  --      0.2249                 0.1324                 0.1120
 IR Inten    --     89.6228                13.0941                 0.8378

                     16                     17                     18
                      A                      A                      A
 Frequencies --    -44.6569                99.5184               302.0203
 Red. masses --      8.5713                10.4247                 6.4674
 Frc consts  --      0.0101                 0.0608                 0.3476
 IR Inten    --      7.8529                13.2137                 0.8463

                     19                     20                     21
                      A                      A                      A
 Frequencies --    372.8989               411.9632               498.8462
 Red. masses --      4.0296                 3.8134                 4.2265
 Frc consts  --      0.3301                 0.3813                 0.6197
 IR Inten    --      2.1720                10.0148                11.2960

                     22                     23                     24
                      A                      A                      A
 Frequencies --    537.3088               573.9081               616.9449
 Red. masses --      3.8200                 5.1495                 2.1951
 Frc consts  --      0.6498                 0.9993                 0.4923
 IR Inten    --      3.3795                19.6522                18.1569

                     25                     26                     27
                      A                      A                      A
 Frequencies --    694.7395               735.8917               789.6525
 Red. masses --      6.4938                 4.8242                 7.9330
 Frc consts  --      1.8467                 1.5392                 2.9145
 IR Inten    --      6.7879                12.4808                26.9183

                     28                     29                     30
                      A                      A                      A
 Frequencies --    808.1199               837.1471               897.4515
 Red. masses --      6.1557                 5.6643                 3.9521
 Frc consts  --      2.3685                 2.3388                 1.8754
 IR Inten    --      3.7257                24.7288                 5.1915

                     31                     32                     33
                      A                      A                      A
 Frequencies --   1015.6522              1037.5998              1104.8435
 Red. masses --      7.6632                 5.6828                 7.4525
 Frc consts  --      4.6575                 3.6047                 5.3598
 IR Inten    --      0.6534                 6.4751                 5.0087

                     34                     35                     36
                      A                      A                      A
 Frequencies --   1142.0551              1247.2899              1361.2580
 Red. masses --      6.0216                 3.1810                 8.5441
 Frc consts  --      4.6274                 2.9158                 9.3281
 IR Inten    --      1.8249                22.8041                39.8535

                     37                     38                     39
                      A                      A                      A
 Frequencies --   1380.2036              1399.2585              1448.4218
 Red. masses --      7.9706                 1.1702                 8.1689
 Frc consts  --      8.9460                 1.3499                10.0973
 IR Inten    --      0.7727                12.7456                33.6721

                     40                     41                     42
                      A                      A                      A
 Frequencies --   1538.7898              1541.7485              1687.6278
 Red. masses --      9.8558                10.1670                 9.8005
 Frc consts  --     13.7500                14.2387                16.4457
 IR Inten    --    108.7362                80.4455                17.9231

                     43                     44                     45
                      A                      A                      A
 Frequencies --   1873.1031              4434.2711              4618.5535
 Red. masses --     12.6438                 1.0784                 1.0678
 Frc consts  --     26.1368                12.4934                13.4204
 IR Inten    --    437.6861                15.7040                57.4050

                     46                     47                     48
                      A                      A                      A
 Frequencies --   5507.6582              5594.4342              5789.9220
 Red. masses --      1.0882                 1.0719                 1.0873
 Frc consts  --     19.4485                19.7662                21.4758
 IR Inten    --      3.0719                 2.7972                11.4890

                     49                     50                     51
                      A                      A                      A
 Frequencies --   5803.3201              7765.5896              8105.7008
 Red. masses --      1.0903                 1.0888                 1.0771
 Frc consts  --     21.6349                38.6854                41.6959
 IR Inten    --      1.8894                 7.3162                86.3661

 - Thermochemistry -
 -------------------
 Temperature   298.150 Kelvin.  Pressure   1.00000 Atm.
 Atom     1 has atomic number  7 and mass  14.00307

 Molecular mass:   154.06165 amu.
 Principal axes and moments of inertia in atomic units:
                           1         2         3
     Eigenvalues --   911.296742132.615282307.10304
           X            0.99936  -0.03329  -0.01342
           Y            0.03265   0.99843  -0.04543
           Z            0.01491   0.04497   0.99888
 This molecule is an asymmetric top.
 Rotational symmetry number  1.
 Warning -- assumption of classical behavior for rotation
           may cause significant error
 Rotational temperatures (Kelvin)      0.09504     0.04061     0.03754
 Rotational constants (GHZ):           1.98041     0.84626     0.78225
   16 imaginary frequencies ignored.
 Zero-point vibrational energy     440068.5 (Joules/Mol)
                                  105.17890 (Kcal/Mol)
 Warning -- explicit consideration of   8 degrees of freedom as
           vibrations may cause significant error
 Vibrational temperatures:    143.18   434.54   536.52   592.72   717.73
          (Kelvin)            773.07   825.73   887.65   999.58  1058.78
                             1136.13  1162.70  1204.47  1291.23  1461.30
                             1492.87  1589.62  1643.16  1794.57  1958.55
                             1985.81  2013.22  2083.96  2213.98  2218.23
                             2428.12  2694.98  6379.93  6645.07  7924.29
                             8049.14  8330.41  8349.68 11172.95 11662.30

 Zero-point correction=                           0.167613 (Hartree/Particle)
 Thermal correction to Energy=                    0.173644
 Thermal correction to Enthalpy=                  0.174588
 Thermal correction to Gibbs Free Energy=         0.135803
 Sum of electronic and zero-point Energies=           -546.585752
 Sum of electronic and thermal Energies=              -546.579721
 Sum of electronic and thermal Enthalpies=            -546.578777
 Sum of electronic and thermal Free Energies=         -546.617562

                     E (Thermal)             CV                S
                      KCal/Mol        Cal/Mol-Kelvin    Cal/Mol-Kelvin
 Total                  108.963             23.072             81.630
 Electronic               0.000              0.000              0.000
 Translational            0.889              2.981             41.006
 Rotational               0.889              2.981             29.884
 Vibrational            107.186             17.110             10.739
 Vibration     1          0.604              1.949              3.464
 Vibration     2          0.694              1.670              1.406
 Vibration     3          0.744              1.528              1.068
 Vibration     4          0.776              1.444              0.920
 Vibration     5          0.854              1.253              0.661
 Vibration     6          0.892              1.168              0.571
 Vibration     7          0.930              1.088              0.497
 Vibration     8          0.977              0.996              0.421

 Normal termination of Gaussian 16 at Mon Mar  6 10:31:30 2023.
