 Gaussian 16, Revision C.01,
 Gaussian 16:  ES64L-G16RevC.01  3-Jul-2019

 ----------------------------------------------------------------------
 #p pop=(regular,nbo,savenbos) freq=noraman def2svp empiricaldispersion
 =gd3bj output=wfx pbe1pbe
 ----------------------------------------------------------------------

 ----------------------------------------
 HODTUS_Complex_8_Ligand_2_ON_Cu_oriented
 ----------------------------------------
 Symbolic Z-matrix:
 Charge = -1 Multiplicity = 1

                         Standard orientation:
 ---------------------------------------------------------------------
 Center     Atomic      Atomic             Coordinates (Angstroms)
 Number     Number       Type             X           Y           Z
 ---------------------------------------------------------------------
      1          6           0       -0.114189    0.134131    0.709703
      2          1           0       -0.264218    0.321597    1.680551
      3          6           0       -1.462925   -0.024454    0.001777
      4          6           0        0.750424    1.255747    0.091711
      5          1           0        0.923915    1.968223    0.756680
      6          7           0        0.706660   -1.093674    0.559998
      7          1           0        1.181122   -1.226735    1.378676
      8          8           0       -1.806478   -1.209495   -0.312924
      9          8           0       -2.119330    1.000546   -0.234993
     10          6           0        1.642957   -0.738318   -0.528559
     11          1           0        2.454606   -1.303852   -0.491753
     12          1           0        1.212195   -0.852495   -1.413197
     13          8           0        1.969771    0.625355   -0.300528
     14          1           0        0.296443    1.655097   -0.691181
 ---------------------------------------------------------------------

 SCF Done:  E(RPBE1PBE) =  -435.633003142     A.U. after   14 cycles

 The electronic state is 1-A.
 Alpha  occ. eigenvalues --  -19.06010 -18.92572 -18.91314 -14.21504 -10.13680
 Alpha  occ. eigenvalues --  -10.09888 -10.08934 -10.07403  -0.91855  -0.81615
 Alpha  occ. eigenvalues --   -0.74988  -0.71350  -0.62974  -0.51932  -0.48785
 Alpha  occ. eigenvalues --   -0.41009  -0.35814  -0.34135  -0.32817  -0.28483
 Alpha  occ. eigenvalues --   -0.26571  -0.24515  -0.22162  -0.20535  -0.17872
 Alpha  occ. eigenvalues --   -0.16080  -0.13253  -0.09802  -0.03322  -0.03226
 Alpha  occ. eigenvalues --   -0.01053
 Alpha virt. eigenvalues --    0.20389   0.24720   0.25641   0.27922   0.29147
 Alpha virt. eigenvalues --    0.29786   0.30175   0.33242   0.34172   0.38155
 Alpha virt. eigenvalues --    0.41781   0.46275   0.48998   0.52881   0.58848

 Mulliken charges:
               1
     1  C   -0.166708
     2  H   -0.033817
     3  C    0.150786
     4  C    0.388976
     5  H   -0.057962
     6  N   -0.243758
     7  H    0.055671
     8  O   -0.450460
     9  O   -0.436929
    10  C    0.412078
    11  H   -0.050840
    12  H   -0.035054
    13  O   -0.490419
    14  H   -0.041564
 Sum of Mulliken charges =  -1.00000

 Dipole moment (field-independent basis, Debye):
    X=              7.4620    Y=              0.6764    Z=              2.1192  Tot=              7.7865
 Quadrupole moment (field-independent basis, Debye-Ang):
   XX=            -71.8908   YY=            -56.9933   ZZ=            -45.1180
   XY=             -3.9993   XZ=             -2.4710   YZ=              0.4636

  Exact polarizability:      54.143      -3.093      55.876      -0.145       1.506      43.450
 Approx polarizability:      69.033      -3.499      86.968      -0.252       2.078      59.713

 Summary of Natural Population Analysis:

                                       Natural Population
                Natural  -----------------------------------------------
    Atom  No    Charge         Core      Valence    Rydberg      Total
 -----------------------------------------------------------------------
      C    1   -0.14996      1.99902     4.12824    0.02270     6.14996
      H    2    0.18270      0.00000     0.81335    0.00394     0.81730
      C    3    0.77343      1.99943     3.15353    0.07361     5.22657
      C    4   -0.02079      1.99899     4.00059    0.02121     6.02079
      H    5    0.15594      0.00000     0.84074    0.00332     0.84406
      N    6   -0.68583      1.99944     5.67001    0.01638     7.68583
      H    7    0.32760      0.00000     0.66505    0.00734     0.67240
      O    8   -0.78401      1.99977     6.77540    0.00884     8.78401
      O    9   -0.79710      1.99974     6.78735    0.01001     8.79710
      C   10    0.18533      1.99916     3.79293    0.02259     5.81467
      H   11    0.14864      0.00000     0.84839    0.00297     0.85136
      H   12    0.14451      0.00000     0.84886    0.00663     0.85549
      O   13   -0.64593      1.99976     6.63661    0.00956     8.64593
      H   14    0.16547      0.00000     0.82778    0.00675     0.83453
 =======================================================================
   * Total *   -1.00000     15.99531    45.78884    0.21585    62.00000

 ******    6 imaginary frequencies (negative Signs) ******

                      1                      2                      3
                      A                      A                      A
 Frequencies --   -842.4302              -784.4210              -661.5057
 Red. masses --      1.0975                 1.1150                 1.1281
 Frc consts  --      0.4589                 0.4042                 0.2909
 IR Inten    --      3.8433                 4.9270               100.1964

                      4                      5                      6
                      A                      A                      A
 Frequencies --   -392.0556              -188.0260              -137.4652
 Red. masses --      1.8743                 3.8489                 2.2501
 Frc consts  --      0.1697                 0.0802                 0.0251
 IR Inten    --     10.4106                 0.6325                 1.9269

                      7                      8                      9
                      A                      A                      A
 Frequencies --    231.6140               375.5422               453.2440
 Red. masses --      1.9545                 3.2392                 3.5737
 Frc consts  --      0.0618                 0.2692                 0.4325
 IR Inten    --      1.7831                 4.0435                 5.5348

                     10                     11                     12
                      A                      A                      A
 Frequencies --    542.8148               632.3283               648.9887
 Red. masses --      1.5222                 1.7720                 2.1594
 Frc consts  --      0.2643                 0.4174                 0.5359
 IR Inten    --     25.9044                23.0311                 6.6376

                     13                     14                     15
                      A                      A                      A
 Frequencies --    678.2925               719.1505               801.2602
 Red. masses --      1.9364                 2.8510                 3.8126
 Frc consts  --      0.5249                 0.8687                 1.4422
 IR Inten    --      8.9019                27.6865                18.3763

                     16                     17                     18
                      A                      A                      A
 Frequencies --    817.2872               875.3791               906.4238
 Red. masses --      1.8769                 3.0626                 2.9228
 Frc consts  --      0.7386                 1.3827                 1.4149
 IR Inten    --     20.7176                11.9774                 7.8294

                     19                     20                     21
                      A                      A                      A
 Frequencies --    924.9167               963.0691              1038.4133
 Red. masses --      2.8080                 4.4179                 5.8080
 Frc consts  --      1.4153                 2.4143                 3.6899
 IR Inten    --      1.0487                17.5968                52.6140

                     22                     23                     24
                      A                      A                      A
 Frequencies --   1074.0365              1088.7567              1112.7138
 Red. masses --      3.0195                 4.9309                 3.9677
 Frc consts  --      2.0522                 3.4438                 2.8944
 IR Inten    --     18.5931                13.3288                37.4246

                     25                     26                     27
                      A                      A                      A
 Frequencies --   1139.5611              1177.6255              1194.6009
 Red. masses --      4.0380                 1.7310                 1.0935
 Frc consts  --      3.0895                 1.4144                 0.9194
 IR Inten    --     25.5637                 2.2166                 8.5634

                     28                     29                     30
                      A                      A                      A
 Frequencies --   1208.2781              1432.0726              1760.3404
 Red. masses --      1.2703                11.8288                12.8473
 Frc consts  --      1.0926                14.2930                23.4561
 IR Inten    --     13.6947               217.5335               433.2435

                     31                     32                     33
                      A                      A                      A
 Frequencies --   4129.1644              4190.3893              4194.5154
 Red. masses --      1.0879                 1.0575                 1.0588
 Frc consts  --     10.9287                10.9404                10.9754
 IR Inten    --     18.0011                64.1985                17.2354

                     34                     35                     36
                      A                      A                      A
 Frequencies --   4304.1224              4308.2354              4339.0573
 Red. masses --      1.1121                 1.1119                 1.0768
 Frc consts  --     12.1389                12.1597                11.9452
 IR Inten    --     20.1609                14.6204                 5.7243

 - Thermochemistry -
 -------------------
 Temperature   298.150 Kelvin.  Pressure   1.00000 Atm.
 Atom     1 has atomic number  6 and mass  12.00000

 Molecular mass:   116.03477 amu.
 Principal axes and moments of inertia in atomic units:
                           1         2         3
     Eigenvalues --   444.974461048.728111309.24599
           X            0.99979  -0.01998  -0.00504
           Y            0.02005   0.99969   0.01448
           Z            0.00475  -0.01457   0.99988
 This molecule is an asymmetric top.
 Rotational symmetry number  1.
 Warning -- assumption of classical behavior for rotation
           may cause significant error
 Rotational temperatures (Kelvin)      0.19465     0.08259     0.06616
 Rotational constants (GHZ):           4.05583     1.72089     1.37846
    6 imaginary frequencies ignored.
 Zero-point vibrational energy     282690.7 (Joules/Mol)
                                   67.56470 (Kcal/Mol)
 Warning -- explicit consideration of   4 degrees of freedom as
           vibrations may cause significant error
 Vibrational temperatures:    333.24   540.32   652.12   780.99   909.78
          (Kelvin)            933.75   975.91  1034.70  1152.83  1175.89
                             1259.48  1304.14  1330.75  1385.64  1494.05
                             1545.30  1566.48  1600.95  1639.57  1694.34
                             1718.76  1738.44  2060.43  2532.74  5940.95
                             6029.04  6034.97  6192.67  6198.59  6242.94

 Zero-point correction=                           0.107671 (Hartree/Particle)
 Thermal correction to Energy=                    0.112856
 Thermal correction to Enthalpy=                  0.113800
 Thermal correction to Gibbs Free Energy=         0.078108
 Sum of electronic and zero-point Energies=           -435.525332
 Sum of electronic and thermal Energies=              -435.520147
 Sum of electronic and thermal Enthalpies=            -435.519203
 Sum of electronic and thermal Free Energies=         -435.554895

                     E (Thermal)             CV                S
                      KCal/Mol        Cal/Mol-Kelvin    Cal/Mol-Kelvin
 Total                   70.818             20.726             75.120
 Electronic               0.000              0.000              0.000
 Translational            0.889              2.981             40.161
 Rotational               0.889              2.981             27.904
 Vibrational             69.041             14.765              7.055
 Vibration     1          0.653              1.793              1.866
 Vibration     2          0.746              1.522              1.057
 Vibration     3          0.812              1.354              0.786
 Vibration     4          0.898              1.155              0.559

 Normal termination of Gaussian 16 at Mon Mar  6 10:25:50 2023.
