 Gaussian 16, Revision C.01,
 Gaussian 16:  ES64L-G16RevC.01  3-Jul-2019

 ----------------------------------------------------------------------
 #p pop=(regular,nbo,savenbos) freq=noraman def2svp empiricaldispersion
 =gd3bj output=wfx pbe1pbe
 ----------------------------------------------------------------------

 ----------------------------------------
 HOKJUM_Complex_0_Ligand_1_ON_Cu_oriented
 ----------------------------------------
 Symbolic Z-matrix:
 Charge = -1 Multiplicity = 1

                         Standard orientation:
 ---------------------------------------------------------------------
 Center     Atomic      Atomic             Coordinates (Angstroms)
 Number     Number       Type             X           Y           Z
 ---------------------------------------------------------------------
      1          8           0       -2.532928    0.113575    1.059652
      2          7           0        0.037140   -0.042551    0.456590
      3          6           0        0.110631    1.257755   -0.308772
      4          6           0        0.588515    2.417998    0.488501
      5          6           0        0.704835    3.667224   -0.356912
      6          6           0        1.389381   -0.606985    0.693344
      7          1           0       -0.023782    2.576337    1.197218
      8          1           0        1.444857    2.212676    0.846575
      9          1           0        1.005937    4.382943    0.179440
     10          1           0        1.316510    3.516130   -1.066465
     11          1           0       -0.152129    3.879792   -0.715823
     12          1           0        1.895005    0.041979    1.163600
     13          1           0        1.282426   -1.382239    1.236571
     14          8           0       -3.145282   -0.520790   -1.003670
     15          6           0       -2.317841   -0.401747   -0.102188
     16          6           0       -0.886651   -0.947030   -0.305518
     17          6           0       -0.890045   -2.386689    0.203365
     18          1           0       -0.671130   -0.935207   -1.225768
     19          1           0       -1.490841   -2.905647   -0.317506
     20          1           0       -0.011461   -2.752871    0.132265
     21          6           0        2.197079   -1.018348   -0.547657
     22          6           0        3.503375   -1.653240   -0.135655
     23          1           0        2.375558   -0.246756   -1.077006
     24          1           0        1.697188   -1.639233   -1.056666
     25          1           0        3.988868   -1.900295   -0.908561
     26          1           0        3.330492   -2.428904    0.390911
     27          1           0       -1.170123   -2.401278    1.116212
     28          1           0       -0.764267    1.459417   -0.637113
     29          1           0        0.708060    1.141539   -1.043490
     30          1           0        4.008863   -1.036426    0.370571
 ---------------------------------------------------------------------

 SCF Done:  E(RPBE1PBE) =  -557.642315677     A.U. after   14 cycles

 The electronic state is 1-A.
 Alpha  occ. eigenvalues --  -18.92820 -18.90954 -14.21963 -10.08872 -10.08845
 Alpha  occ. eigenvalues --  -10.08080 -10.07737 -10.07499 -10.06922 -10.06446
 Alpha  occ. eigenvalues --  -10.06247 -10.03346  -0.81838  -0.78003  -0.71620
 Alpha  occ. eigenvalues --   -0.71102  -0.69698  -0.63710  -0.61292  -0.57252
 Alpha  occ. eigenvalues --   -0.53905  -0.50272  -0.46357  -0.41252  -0.39368
 Alpha  occ. eigenvalues --   -0.36535  -0.35930  -0.35459  -0.34290  -0.32473
 Alpha  occ. eigenvalues --   -0.30149  -0.29132  -0.28301  -0.27753  -0.26744
 Alpha  occ. eigenvalues --   -0.26208  -0.25555  -0.24566  -0.23532  -0.22796
 Alpha  occ. eigenvalues --   -0.20806  -0.20465  -0.17812  -0.16311  -0.06662
 Alpha  occ. eigenvalues --   -0.03148  -0.02880  -0.00799
 Alpha virt. eigenvalues --    0.17232   0.19446   0.22317   0.22443   0.22720
 Alpha virt. eigenvalues --    0.25491   0.26234   0.27102   0.27621   0.27750
 Alpha virt. eigenvalues --    0.28950   0.29513   0.30407   0.31074   0.32559

 Mulliken charges:
               1
     1  O   -0.484751
     2  N   -0.404465
     3  C    0.244333
     4  C    0.086104
     5  C    0.134918
     6  C    0.257831
     7  H   -0.025620
     8  H   -0.062602
     9  H   -0.053814
    10  H   -0.047974
    11  H   -0.026564
    12  H   -0.080533
    13  H   -0.060063
    14  O   -0.412849
    15  C    0.086317
    16  C    0.034124
    17  C    0.261573
    18  H   -0.106258
    19  H   -0.048657
    20  H   -0.078119
    21  C    0.005259
    22  C    0.160082
    23  H   -0.037510
    24  H   -0.032229
    25  H   -0.051511
    26  H   -0.038904
    27  H   -0.043317
    28  H   -0.028826
    29  H   -0.099621
    30  H   -0.046354
 Sum of Mulliken charges =  -1.00000

 Dipole moment (field-independent basis, Debye):
    X=             11.9240    Y=              0.5302    Z=             -1.1256  Tot=             11.9887
 Quadrupole moment (field-independent basis, Debye-Ang):
   XX=           -117.3864   YY=            -78.7357   ZZ=            -84.2138
   XY=             -1.7894   XZ=             -0.0769   YZ=             -2.0759

  Exact polarizability:     104.931      -2.103     105.661       2.216       0.554      83.506
 Approx polarizability:     128.852      -2.387     127.556       4.970       4.448     130.559

 Summary of Natural Population Analysis:

                                       Natural Population
                Natural  -----------------------------------------------
    Atom  No    Charge         Core      Valence    Rydberg      Total
 -----------------------------------------------------------------------
      O    1   -0.80930      1.99977     6.80094    0.00860     8.80930
      N    2   -0.54626      1.99944     5.53065    0.01617     7.54626
      C    3   -0.13646      1.99895     4.11885    0.01866     6.13646
      C    4   -0.33088      1.99905     4.32076    0.01106     6.33088
      C    5   -0.53347      1.99916     4.52641    0.00790     6.53347
      C    6   -0.13944      1.99900     4.12223    0.01821     6.13944
      H    7    0.17963      0.00000     0.81352    0.00685     0.82037
      H    8    0.15653      0.00000     0.83945    0.00402     0.84347
      H    9    0.17061      0.00000     0.82661    0.00278     0.82939
      H   10    0.16626      0.00000     0.83031    0.00343     0.83374
      H   11    0.17787      0.00000     0.81897    0.00316     0.82213
      H   12    0.15683      0.00000     0.83923    0.00394     0.84317
      H   13    0.16587      0.00000     0.83039    0.00374     0.83413
      O   14   -0.77722      1.99972     6.76729    0.01020     8.77722
      C   15    0.77848      1.99943     3.14579    0.07629     5.22152
      C   16   -0.08426      1.99887     4.06117    0.02421     6.08426
      C   17   -0.54347      1.99914     4.53595    0.00838     6.54347
      H   18    0.13272      0.00000     0.85604    0.01125     0.86728
      H   19    0.18734      0.00000     0.80789    0.00477     0.81266
      H   20    0.15778      0.00000     0.83882    0.00341     0.84222
      C   21   -0.35242      1.99906     4.34342    0.00994     6.35242
      C   22   -0.53354      1.99916     4.52622    0.00816     6.53354
      H   23    0.16400      0.00000     0.83218    0.00382     0.83600
      H   24    0.16837      0.00000     0.82778    0.00386     0.83163
      H   25    0.17235      0.00000     0.82450    0.00315     0.82765
      H   26    0.17296      0.00000     0.82371    0.00333     0.82704
      H   27    0.18814      0.00000     0.80490    0.00696     0.81186
      H   28    0.19007      0.00000     0.80609    0.00385     0.80993
      H   29    0.13284      0.00000     0.86097    0.00619     0.86716
      H   30    0.16809      0.00000     0.82858    0.00333     0.83191
 =======================================================================
   * Total *   -1.00000     23.99076    71.70963    0.29961    96.00000

 ******   26 imaginary frequencies (negative Signs) ******

                      1                      2                      3
                      A                      A                      A
 Frequencies --  -1489.4894             -1483.1275             -1441.8281
 Red. masses --      1.0105                 1.0117                 1.0112
 Frc consts  --      1.3209                 1.3112                 1.2385
 IR Inten    --      0.0380                 0.0951                 0.2757

                      4                      5                      6
                      A                      A                      A
 Frequencies --  -1282.0159             -1249.7947             -1234.6289
 Red. masses --      1.0404                 1.0392                 1.0241
 Frc consts  --      1.0075                 0.9563                 0.9198
 IR Inten    --      8.1457                 6.6049                 0.9434

                      7                      8                      9
                      A                      A                      A
 Frequencies --  -1198.1764             -1147.6087             -1140.9276
 Red. masses --      1.0239                 1.0544                 1.0645
 Frc consts  --      0.8661                 0.8182                 0.8164
 IR Inten    --      2.2125                13.2421                 6.5677

                     10                     11                     12
                      A                      A                      A
 Frequencies --  -1120.5370             -1116.2035             -1103.6367
 Red. masses --      1.0575                 1.0504                 1.0558
 Frc consts  --      0.7823                 0.7711                 0.7577
 IR Inten    --      3.2409                 1.4819                 1.8048

                     13                     14                     15
                      A                      A                      A
 Frequencies --  -1077.7714              -879.7054              -803.7764
 Red. masses --      1.0532                 1.0988                 1.1544
 Frc consts  --      0.7208                 0.5010                 0.4394
 IR Inten    --     16.2506                 4.3428                 1.2623

                     16                     17                     18
                      A                      A                      A
 Frequencies --   -750.7823              -731.2011              -703.8557
 Red. masses --      1.1871                 1.1920                 1.2016
 Frc consts  --      0.3943                 0.3755                 0.3507
 IR Inten    --      2.0248                 0.6350                 1.2075

                     19                     20                     21
                      A                      A                      A
 Frequencies --   -669.7421              -566.5827              -500.3179
 Red. masses --      1.2784                 1.2628                 1.3485
 Frc consts  --      0.3378                 0.2388                 0.1989
 IR Inten    --     11.8514                 3.0036                15.5313

                     22                     23                     24
                      A                      A                      A
 Frequencies --   -406.9787              -372.7468              -360.3239
 Red. masses --      1.4887                 1.3150                 1.1934
 Frc consts  --      0.1453                 0.1076                 0.0913
 IR Inten    --     11.3388                 4.9921                15.2922

                     25                     26                     27
                      A                      A                      A
 Frequencies --   -329.3149              -307.9100                36.6761
 Red. masses --      1.2441                 1.1568                 9.0602
 Frc consts  --      0.0795                 0.0646                 0.0072
 IR Inten    --     11.7027                22.1108                 2.2333

                     28                     29                     30
                      A                      A                      A
 Frequencies --    232.9453               257.7364               328.1924
 Red. masses --      6.3273                 6.0268                 3.7354
 Frc consts  --      0.2023                 0.2359                 0.2371
 IR Inten    --     10.7655                 3.4818                 0.9293

                     31                     32                     33
                      A                      A                      A
 Frequencies --    379.2060               419.8646               439.4598
 Red. masses --      4.4659                 7.0574                 3.1855
 Frc consts  --      0.3784                 0.7330                 0.3625
 IR Inten    --      1.1151                 2.8669                 5.0369

                     34                     35                     36
                      A                      A                      A
 Frequencies --    514.5184               561.3907               588.2827
 Red. masses --      5.4034                 3.5200                 4.8822
 Frc consts  --      0.8428                 0.6536                 0.9955
 IR Inten    --      3.0777                 4.4953                 9.3041

                     37                     38                     39
                      A                      A                      A
 Frequencies --    649.2777               671.1981               678.2950
 Red. masses --      3.3301                 2.5358                 2.5148
 Frc consts  --      0.8271                 0.6731                 0.6817
 IR Inten    --      9.6684                12.0362                 0.6770

                     40                     41                     42
                      A                      A                      A
 Frequencies --    729.2046               746.0994               748.3922
 Red. masses --      1.4969                 2.8173                 2.2661
 Frc consts  --      0.4690                 0.9240                 0.7478
 IR Inten    --      4.9587                 1.7757                24.3947

                     43                     44                     45
                      A                      A                      A
 Frequencies --    798.9581               805.1213               813.6727
 Red. masses --      1.4056                 1.5661                 1.7683
 Frc consts  --      0.5287                 0.5981                 0.6898
 IR Inten    --      6.9740                13.8715                20.1377

                     46                     47                     48
                      A                      A                      A
 Frequencies --    843.1273               844.7764               855.5549
 Red. masses --      3.5571                 1.2978                 2.2275
 Frc consts  --      1.4898                 0.5457                 0.9607
 IR Inten    --     13.0281                 5.5260                 4.8467

                     49                     50                     51
                      A                      A                      A
 Frequencies --    885.2479               897.8568               900.9274
 Red. masses --      1.5269                 1.4366                 1.3841
 Frc consts  --      0.7050                 0.6823                 0.6619
 IR Inten    --     19.5923                11.7760                 3.8137

                     52                     53                     54
                      A                      A                      A
 Frequencies --    911.7533               923.9146               986.8414
 Red. masses --      1.6611                 1.1734                 1.4712
 Frc consts  --      0.8136                 0.5901                 0.8441
 IR Inten    --     15.8632                 3.2766                 3.5322

                     55                     56                     57
                      A                      A                      A
 Frequencies --    993.2591               999.5891              1047.9186
 Red. masses --      1.5894                 1.9991                 2.8058
 Frc consts  --      0.9239                 1.1769                 1.8154
 IR Inten    --      4.5885                 1.8861                 0.6576

                     58                     59                     60
                      A                      A                      A
 Frequencies --   1080.7458              1116.1917              1123.6443
 Red. masses --      4.1759                 2.9736                 3.3719
 Frc consts  --      2.8738                 2.1827                 2.5083
 IR Inten    --     13.9753                 5.6162                 2.6711

                     61                     62                     63
                      A                      A                      A
 Frequencies --   1138.7550              1174.5002              1199.5651
 Red. masses --      4.2362                 6.5770                 5.4056
 Frc consts  --      3.2366                 5.3454                 4.5829
 IR Inten    --      0.9696                25.3208                19.5716

                     64                     65                     66
                      A                      A                      A
 Frequencies --   1269.7575              1371.2970              1789.2852
 Red. masses --      5.1529                11.6833                12.6970
 Frc consts  --      4.8949                12.9443                23.9502
 IR Inten    --      2.9319               230.7990               459.6247

                     67                     68                     69
                      A                      A                      A
 Frequencies --   4545.4197              4589.8063              4592.8946
 Red. masses --      1.0333                 1.0576                 1.0348
 Frc consts  --     12.5781                13.1268                12.8607
 IR Inten    --     23.9409                25.6981                19.5868

                     70                     71                     72
                      A                      A                      A
 Frequencies --   4599.0820              4652.2836              4657.9919
 Red. masses --      1.0361                 1.0601                 1.0590
 Frc consts  --     12.9124                13.5190                13.5381
 IR Inten    --     20.7281                14.5375                18.7758

                     73                     74                     75
                      A                      A                      A
 Frequencies --   4663.4388              4730.1741              4736.0082
 Red. masses --      1.0622                 1.1107                 1.1061
 Frc consts  --     13.6101                14.6415                14.6170
 IR Inten    --     15.0968                12.5639                10.4304

                     76                     77                     78
                      A                      A                      A
 Frequencies --   4786.5121              4787.5651              4793.0128
 Red. masses --      1.0886                 1.1056                 1.1032
 Frc consts  --     14.6945                14.9305                14.9315
 IR Inten    --     24.2672                 4.3522                 9.8761

                     79                     80                     81
                      A                      A                      A
 Frequencies --   4803.2056              4803.9986              4808.3476
 Red. masses --      1.1020                 1.1094                 1.1089
 Frc consts  --     14.9797                15.0852                15.1058
 IR Inten    --      9.3441                10.9029                10.3107

                     82                     83                     84
                      A                      A                      A
 Frequencies --   4833.4470              4859.9344              4864.3366
 Red. masses --      1.1061                 1.1054                 1.1066
 Frc consts  --     15.2257                15.3832                15.4274
 IR Inten    --      9.2739                11.6715                10.0106

 - Thermochemistry -
 -------------------
 Temperature   298.150 Kelvin.  Pressure   1.00000 Atm.
 Atom     1 has atomic number  8 and mass  15.99491

 Molecular mass:   172.13375 amu.
 Principal axes and moments of inertia in atomic units:
                           1         2         3
     Eigenvalues --  1979.475732559.920724050.87027
           X            0.99940  -0.03447  -0.00289
           Y            0.03445   0.99938  -0.00746
           Z            0.00315   0.00736   0.99997
 This molecule is an asymmetric top.
 Rotational symmetry number  1.
 Warning -- assumption of classical behavior for rotation
           may cause significant error
 Rotational temperatures (Kelvin)      0.04376     0.03383     0.02138
 Rotational constants (GHZ):           0.91173     0.70500     0.44552
   26 imaginary frequencies ignored.
 Zero-point vibrational energy     704962.1 (Joules/Mol)
                                  168.48998 (Kcal/Mol)
 Warning -- explicit consideration of  10 degrees of freedom as
           vibrations may cause significant error
 Vibrational temperatures:     52.77   335.16   370.83   472.20   545.59
          (Kelvin)            604.09   632.28   740.28   807.72   846.41
                              934.17   965.70   975.92  1049.16  1073.47
                             1076.77  1149.52  1158.39  1170.69  1213.07
                             1215.44  1230.95  1273.67  1291.82  1296.23
                             1311.81  1329.31  1419.84  1429.08  1438.19
                             1507.72  1554.95  1605.95  1616.67  1638.41
                             1689.84  1725.91  1826.90  1972.99  2574.38
                             6539.85  6603.71  6608.15  6617.05  6693.60
                             6701.81  6709.65  6805.67  6814.06  6886.72
                             6888.24  6896.08  6910.74  6911.88  6918.14
                             6954.25  6992.36  6998.70

 Zero-point correction=                           0.268506 (Hartree/Particle)
 Thermal correction to Energy=                    0.276693
 Thermal correction to Enthalpy=                  0.277637
 Thermal correction to Gibbs Free Energy=         0.234054
 Sum of electronic and zero-point Energies=           -557.373810
 Sum of electronic and thermal Energies=              -557.365623
 Sum of electronic and thermal Enthalpies=            -557.364678
 Sum of electronic and thermal Free Energies=         -557.408261

                     E (Thermal)             CV                S
                      KCal/Mol        Cal/Mol-Kelvin    Cal/Mol-Kelvin
 Total                  173.628             35.173             91.728
 Electronic               0.000              0.000              0.000
 Translational            0.889              2.981             41.337
 Rotational               0.889              2.981             31.396
 Vibrational            171.850             29.211             18.995
 Vibration     1          0.594              1.982              5.431
 Vibration     2          0.654              1.791              1.856
 Vibration     3          0.667              1.750              1.677
 Vibration     4          0.711              1.619              1.269
 Vibration     5          0.749              1.514              1.042
 Vibration     6          0.783              1.427              0.892
 Vibration     7          0.799              1.384              0.828
 Vibration     8          0.870              1.218              0.623
 Vibration     9          0.917              1.115              0.521
 Vibration    10          0.945              1.057              0.470

 Normal termination of Gaussian 16 at Mon Mar  6 10:45:54 2023.
