 Gaussian 16, Revision C.01,
 Gaussian 16:  ES64L-G16RevC.01  3-Jul-2019

 ----------------------------------------------------------------------
 #p pop=(regular,nbo,savenbos) freq=noraman def2svp empiricaldispersion
 =gd3bj output=wfx pbe1pbe
 ----------------------------------------------------------------------

 ----------------------------------------
 HOMNII_Complex_8_Ligand_2_ON_Cu_oriented
 ----------------------------------------
 Symbolic Z-matrix:
 Charge =  0 Multiplicity = 1

                         Standard orientation:
 ---------------------------------------------------------------------
 Center     Atomic      Atomic             Coordinates (Angstroms)
 Number     Number       Type             X           Y           Z
 ---------------------------------------------------------------------
      1          6           0       -1.701095   -0.708434    0.046513
      2          6           0       -1.141397    0.601951   -0.490726
      3          1           0       -1.199801    0.604885   -1.469210
      4          6           0        0.339970    0.768988   -0.063542
      5          1           0        0.642379    1.658582   -0.303978
      6          1           0        0.405666    0.682673    0.900045
      7          6           0        1.253267   -0.270121   -0.724775
      8          1           0        1.030318   -1.146393   -0.377360
      9          1           0        1.076623   -0.278435   -1.679032
     10          6           0        2.718110   -0.024129   -0.508623
     11          1           0        3.227256   -0.678547   -1.013735
     12          1           0        2.944924    0.854850   -0.849425
     13          7           0       -1.933526    1.735583    0.055786
     14          1           0       -1.344376    2.393247    0.151409
     15          1           0       -2.621975    1.836475   -0.475804
     16          7           0        3.106446   -0.107309    0.923295
     17          1           0        3.977596   -0.046751    0.910249
     18          1           0        2.993513    0.502614    1.564730
     19          1           0        2.739046   -0.723987    1.426574
     20          8           0       -2.408894   -0.629228    1.120036
     21          8           0       -1.452948   -1.779105   -0.518925
 ---------------------------------------------------------------------

 SCF Done:  E(RPBE1PBE) =  -456.520563555     A.U. after   20 cycles

 The electronic state is 1-A.
 Alpha  occ. eigenvalues --  -19.03424 -19.01314 -14.60013 -14.28454 -10.34943
 Alpha  occ. eigenvalues --  -10.24156 -10.21356 -10.19361 -10.19114  -1.20409
 Alpha  occ. eigenvalues --   -0.92586  -0.91010  -0.87338  -0.81879  -0.80983
 Alpha  occ. eigenvalues --   -0.77504  -0.71509  -0.69299  -0.64117  -0.62126
 Alpha  occ. eigenvalues --   -0.55727  -0.51334  -0.49948  -0.48135  -0.43867
 Alpha  occ. eigenvalues --   -0.41571  -0.38957  -0.37290  -0.36061  -0.32616
 Alpha  occ. eigenvalues --   -0.28091  -0.27417  -0.19453  -0.13924  -0.13386
 Alpha  occ. eigenvalues --   -0.10814
 Alpha virt. eigenvalues --   -0.04936   0.00896   0.03319   0.04361   0.07706
 Alpha virt. eigenvalues --    0.09217   0.10881   0.13154   0.14355   0.15520
 Alpha virt. eigenvalues --    0.16341   0.17738   0.19854   0.21428   0.22416

 Mulliken charges:
               1
     1  C    0.098144
     2  C   -0.020380
     3  H   -0.047431
     4  C    0.034761
     5  H   -0.043956
     6  H   -0.047550
     7  C    0.039669
     8  H    0.012146
     9  H    0.010790
    10  C    0.157083
    11  H    0.032152
    12  H    0.023230
    13  N   -0.035724
    14  H    0.008125
    15  H    0.037130
    16  N    0.267383
    17  H    0.103236
    18  H    0.107029
    19  H    0.114010
    20  O   -0.437801
    21  O   -0.412045
 Sum of Mulliken charges =  -0.00000

 Dipole moment (field-independent basis, Debye):
    X=             21.0684    Y=              5.3233    Z=              0.4534  Tot=             21.7352
 Quadrupole moment (field-independent basis, Debye-Ang):
   XX=            -30.4968   YY=            -61.7260   ZZ=            -51.2998
   XY=            -10.6161   XZ=             20.2668   YZ=             -2.6665

  Exact polarizability:      79.382      -1.112      61.347      -3.858       2.605      58.197
 Approx polarizability:      96.090      -1.656      84.533     -10.117       7.809      87.959

 Summary of Natural Population Analysis:

                                       Natural Population
                Natural  -----------------------------------------------
    Atom  No    Charge         Core      Valence    Rydberg      Total
 -----------------------------------------------------------------------
      C    1    0.74831      1.99941     3.17680    0.07548     5.25169
      C    2   -0.08486      1.99896     4.06244    0.02346     6.08486
      H    3    0.15708      0.00000     0.83575    0.00717     0.84292
      C    4   -0.38345      1.99902     4.36946    0.01497     6.38345
      H    5    0.16522      0.00000     0.82793    0.00684     0.83478
      H    6    0.17194      0.00000     0.81849    0.00957     0.82806
      C    7   -0.37877      1.99903     4.36242    0.01732     6.37877
      H    8    0.21498      0.00000     0.77620    0.00881     0.78502
      H    9    0.21863      0.00000     0.77642    0.00495     0.78137
      C   10   -0.13838      1.99892     4.12516    0.01430     6.13838
      H   11    0.20065      0.00000     0.79604    0.00331     0.79935
      H   12    0.19314      0.00000     0.80243    0.00444     0.80686
      N   13   -0.78268      1.99941     5.75901    0.02426     7.78268
      H   14    0.30080      0.00000     0.69248    0.00672     0.69920
      H   15    0.32090      0.00000     0.67326    0.00584     0.67910
      N   16   -0.55294      1.99921     5.54179    0.01193     7.55294
      H   17    0.38335      0.00000     0.61229    0.00436     0.61665
      H   18    0.40363      0.00000     0.59211    0.00426     0.59637
      H   19    0.39565      0.00000     0.59959    0.00476     0.60435
      O   20   -0.76554      1.99977     6.75711    0.00865     8.76554
      O   21   -0.78768      1.99973     6.77748    0.01047     8.78768
 =======================================================================
   * Total *   -0.00000     17.99348    53.73466    0.27186    72.00000

 ******   18 imaginary frequencies (negative Signs) ******

                      1                      2                      3
                      A                      A                      A
 Frequencies --  -1866.6058             -1751.3768             -1655.5943
 Red. masses --      1.0128                 1.0694                 1.1044
 Frc consts  --      2.0791                 1.9327                 1.7836
 IR Inten    --      0.3029                91.3986               116.3268

                      4                      5                      6
                      A                      A                      A
 Frequencies --  -1581.1898             -1418.5456             -1122.8913
 Red. masses --      1.0817                 1.0485                 1.0635
 Frc consts  --      1.5934                 1.2431                 0.7901
 IR Inten    --     59.7190                50.2026                 2.3089

                      7                      8                      9
                      A                      A                      A
 Frequencies --  -1112.0069             -1071.3574             -1043.1122
 Red. masses --      1.0344                 1.0533                 1.0401
 Frc consts  --      0.7536                 0.7123                 0.6668
 IR Inten    --      6.1071                 1.9538                 1.7340

                     10                     11                     12
                      A                      A                      A
 Frequencies --   -620.3434              -572.0585              -517.6454
 Red. masses --      1.1568                 1.2132                 1.2897
 Frc consts  --      0.2623                 0.2339                 0.2036
 IR Inten    --      6.2938               102.9727                 7.8553

                     13                     14                     15
                      A                      A                      A
 Frequencies --   -496.1234              -482.3737              -371.6132
 Red. masses --      1.4001                 1.4583                 1.5610
 Frc consts  --      0.2030                 0.1999                 0.1270
 IR Inten    --      4.4696                 9.5526                13.1900

                     16                     17                     18
                      A                      A                      A
 Frequencies --   -302.0150              -226.3151              -111.9589
 Red. masses --      1.8135                 2.4785                 3.4040
 Frc consts  --      0.0975                 0.0748                 0.0251
 IR Inten    --      4.9008                28.0460                18.3369

                     19                     20                     21
                      A                      A                      A
 Frequencies --     23.1005               309.8331               385.3708
 Red. masses --      2.7992                 2.7422                 3.8806
 Frc consts  --      0.0009                 0.1551                 0.3396
 IR Inten    --     26.7622                21.3637                 3.5090

                     22                     23                     24
                      A                      A                      A
 Frequencies --    505.0445               517.0615               580.2407
 Red. masses --      1.7796                 1.5961                 1.7197
 Frc consts  --      0.2674                 0.2514                 0.3411
 IR Inten    --     39.1014                48.2131                 5.0011

                     25                     26                     27
                      A                      A                      A
 Frequencies --    622.7546               663.3688               774.6246
 Red. masses --      2.6226                 1.8912                 2.4559
 Frc consts  --      0.5993                 0.4903                 0.8682
 IR Inten    --      3.5489                 1.7030                 5.2848

                     28                     29                     30
                      A                      A                      A
 Frequencies --    778.2351               798.6311               835.1031
 Red. masses --      2.6802                 1.9450                 4.0944
 Frc consts  --      0.9564                 0.7309                 1.6824
 IR Inten    --      3.6400                 2.9982                31.4954

                     31                     32                     33
                      A                      A                      A
 Frequencies --    852.4525               885.3546               914.6347
 Red. masses --      1.8353                 4.5582                 2.3750
 Frc consts  --      0.7858                 2.1051                 1.1706
 IR Inten    --      3.5044                 5.9625                 1.2529

                     34                     35                     36
                      A                      A                      A
 Frequencies --    938.2331               976.3104               984.2688
 Red. masses --      1.4843                 2.0048                 1.2916
 Frc consts  --      0.7698                 1.1259                 0.7372
 IR Inten    --      6.8844                26.2059                18.4767

                     37                     38                     39
                      A                      A                      A
 Frequencies --   1009.1625              1086.0055              1109.2142
 Red. masses --      4.1874                 1.4722                 2.6515
 Frc consts  --      2.5126                 1.0230                 1.9221
 IR Inten    --      3.5818                21.8341                 1.5823

                     40                     41                     42
                      A                      A                      A
 Frequencies --   1121.3587              1163.0158              1177.5819
 Red. masses --      5.6935                 2.4824                 4.2497
 Frc consts  --      4.2181                 1.9783                 3.4721
 IR Inten    --     21.8206                11.9926                10.2556

                     43                     44                     45
                      A                      A                      A
 Frequencies --   1251.7607              1397.8256              1753.6502
 Red. masses --      1.4470                11.1898                12.5931
 Frc consts  --      1.3358                12.8819                22.8175
 IR Inten    --     27.7727               197.4771               401.9063

                     46                     47                     48
                      A                      A                      A
 Frequencies --   4346.4063              4416.5909              4437.3124
 Red. masses --      1.0869                 1.0592                 1.0606
 Frc consts  --     12.0972                12.1726                12.3041
 IR Inten    --     28.4166                34.7190                 0.7919

                     49                     50                     51
                      A                      A                      A
 Frequencies --   4438.7474              4534.7513              4558.8919
 Red. masses --      1.0616                 1.1084                 1.1106
 Frc consts  --     12.3236                13.4296                13.5994
 IR Inten    --     10.7270                17.3486                 0.9061

                     52                     53                     54
                      A                      A                      A
 Frequencies --   4565.8187              5288.7873              5312.6973
 Red. masses --      1.1085                 1.0701                 1.0482
 Frc consts  --     13.6156                17.6352                17.4316
 IR Inten    --      1.8049                71.0500                 0.5291

                     55                     56                     57
                      A                      A                      A
 Frequencies --   5477.4771              5644.8448              5686.4528
 Red. masses --      1.0433                 1.0970                 1.1011
 Frc consts  --     18.4422                20.5954                20.9774
 IR Inten    --     46.8404                29.4384               130.4788

 - Thermochemistry -
 -------------------
 Temperature   298.150 Kelvin.  Pressure   1.00000 Atm.
 Atom     1 has atomic number  6 and mass  12.00000

 Molecular mass:   132.08988 amu.
 Principal axes and moments of inertia in atomic units:
                           1         2         3
     Eigenvalues --   697.972892139.066552393.96294
           X            0.99967  -0.02097   0.01501
           Y            0.02115   0.99970  -0.01243
           Z           -0.01474   0.01275   0.99981
 This molecule is an asymmetric top.
 Rotational symmetry number  1.
 Warning -- assumption of classical behavior for rotation
           may cause significant error
 Rotational temperatures (Kelvin)      0.12409     0.04049     0.03618
 Rotational constants (GHZ):           2.58569     0.84371     0.75387
   18 imaginary frequencies ignored.
 Zero-point vibrational energy     491204.5 (Joules/Mol)
                                  117.40069 (Kcal/Mol)
 Warning -- explicit consideration of   6 degrees of freedom as
           vibrations may cause significant error
 Vibrational temperatures:     33.24   445.78   554.46   726.65   743.94
          (Kelvin)            834.84   896.01   954.44  1114.51  1119.71
                             1149.05  1201.53  1226.49  1273.83  1315.96
                             1349.91  1404.69  1416.14  1451.96  1562.52
                             1595.91  1613.39  1673.32  1694.28  1801.00
                             2011.16  2523.11  6253.51  6354.49  6384.30
                             6386.37  6524.50  6559.23  6569.19  7609.39
                             7643.79  7880.87  8121.67  8181.54

 Zero-point correction=                           0.187090 (Hartree/Particle)
 Thermal correction to Energy=                    0.193213
 Thermal correction to Enthalpy=                  0.194157
 Thermal correction to Gibbs Free Energy=         0.154491
 Sum of electronic and zero-point Energies=           -456.333474
 Sum of electronic and thermal Energies=              -456.327350
 Sum of electronic and thermal Enthalpies=            -456.326406
 Sum of electronic and thermal Free Energies=         -456.366072

                     E (Thermal)             CV                S
                      KCal/Mol        Cal/Mol-Kelvin    Cal/Mol-Kelvin
 Total                  121.243             23.913             83.485
 Electronic               0.000              0.000              0.000
 Translational            0.889              2.981             40.548
 Rotational               0.889              2.981             29.659
 Vibrational            119.466             17.951             13.278
 Vibration     1          0.593              1.985              6.348
 Vibration     2          0.699              1.655              1.363
 Vibration     3          0.754              1.501              1.018
 Vibration     4          0.860              1.239              0.646
 Vibration     5          0.872              1.212              0.617
 Vibration     6          0.937              1.074              0.485

 Normal termination of Gaussian 16 at Sat Mar  4 11:35:36 2023.
