 Gaussian 16, Revision C.01,
 Gaussian 16:  ES64L-G16RevC.01  3-Jul-2019

 ----------------------------------------------------------------------
 #p pop=(regular,nbo,savenbos) freq=noraman def2svp empiricaldispersion
 =gd3bj output=wfx pbe1pbe
 ----------------------------------------------------------------------

 ----------------------------------------
 HOQHAX_Complex_1_Ligand_1_NN_Cu_oriented
 ----------------------------------------
 Symbolic Z-matrix:
 Charge =  0 Multiplicity = 1

                         Standard orientation:
 ---------------------------------------------------------------------
 Center     Atomic      Atomic             Coordinates (Angstroms)
 Number     Number       Type             X           Y           Z
 ---------------------------------------------------------------------
      1          7           0        3.228477   -1.942660   -0.190529
      2          6           0        4.463772    0.354965    0.724434
      3          1           0        4.895159    1.128110    1.068635
      4          6           0        3.082146    0.247823    0.776893
      5          6           0        2.520463   -0.905030    0.264831
      6          6           0        4.567803   -1.807872   -0.249283
      7          1           0        5.086877   -2.525615   -0.592718
      8          6           0        5.207350   -0.664666    0.172072
      9          1           0        6.149277   -0.579376    0.083621
     10          7           0        1.109569   -1.126992    0.195294
     11          7           0        0.697438   -2.418049   -0.031867
     12          6           0       -0.621866   -2.383869   -0.132236
     13          6           0       -1.411278   -3.615733   -0.382207
     14          1           0       -0.807670   -4.386829   -0.426667
     15          1           0       -1.893362   -3.528101   -1.229860
     16         15           0       -2.772870   -0.534545   -0.203424
     17          8           0       -3.428763   -1.313968   -1.253939
     18          8           0       -2.788091    1.005939   -0.394042
     19          8           0       -3.564960   -0.779472    1.097455
     20          6           0       -1.079784   -1.042359    0.020152
     21          6           0        0.055837   -0.268388    0.213134
     22          6           0       -3.330709   -0.413751    2.340350
     23          1           0       -3.716463    0.472926    2.497876
     24          1           0       -3.738362   -1.061801    2.952794
     25          1           0       -2.363548   -0.381701    2.493272
     26          6           0        0.207642    1.202443    0.259562
     27          6           0        0.697940    1.832135   -0.882410
     28          6           0        0.809310    3.212873   -0.929399
     29          1           0        1.136282    3.640160   -1.711982
     30          6           0        0.444498    3.955271    0.163531
     31          1           0        0.529902    4.900873    0.137507
     32          6           0       -0.045749    3.347340    1.299296
     33          1           0       -0.306941    3.872749    2.046001
     34          6           0       -0.154417    1.962035    1.347709
     35          1           0       -0.479883    1.539184    2.134533
     36          8           0        1.095636    1.024073   -1.879119
     37          1           0        0.930518    1.340519   -2.628243
     38          6           0       -2.526081    1.644389   -1.646913
     39          1           0       -3.197420    1.363284   -2.303551
     40          1           0       -2.568582    2.617124   -1.533605
     41          1           0       -1.634306    1.390644   -1.963577
     42          1           0        2.544590    0.937375    1.149297
     43          1           0       -2.053238   -3.745661    0.347796
 ---------------------------------------------------------------------

 SCF Done:  E(RPBE1PBE) =  -1462.63098694     A.U. after   15 cycles

 The electronic state is 1-A.
 Alpha  occ. eigenvalues --  -77.30570 -19.24858 -19.23326 -19.22259 -19.12458
 Alpha  occ. eigenvalues --  -14.47576 -14.39309 -14.38871 -10.31803 -10.31509
 Alpha  occ. eigenvalues --  -10.29058 -10.26432 -10.26281 -10.26197 -10.25700
 Alpha  occ. eigenvalues --  -10.24978 -10.24782 -10.24524 -10.24306 -10.24105
 Alpha  occ. eigenvalues --  -10.24079 -10.23573 -10.23093 -10.22850 -10.18099
 Alpha  occ. eigenvalues --   -6.69951  -4.84197  -4.84067  -4.83820  -1.13362
 Alpha  occ. eigenvalues --   -1.12061  -1.07350  -1.06995  -0.97300  -0.95166
 Alpha  occ. eigenvalues --   -0.90925  -0.86992  -0.84374  -0.83041  -0.79590
 Alpha  occ. eigenvalues --   -0.79222  -0.78440  -0.77137  -0.74699  -0.74206
 Alpha  occ. eigenvalues --   -0.69125  -0.68402  -0.67353  -0.66118  -0.62826
 Alpha  occ. eigenvalues --   -0.61654  -0.59790  -0.58565  -0.57826  -0.55663
 Alpha  occ. eigenvalues --   -0.54845  -0.52773  -0.52543  -0.52361  -0.51286
 Alpha  occ. eigenvalues --   -0.50863  -0.50573  -0.49921  -0.49207  -0.49022
 Alpha  occ. eigenvalues --   -0.47826  -0.47150  -0.46553  -0.46160  -0.44156
 Alpha  occ. eigenvalues --   -0.43781  -0.42559  -0.41737  -0.41438  -0.40559
 Alpha  occ. eigenvalues --   -0.40310  -0.40208  -0.39650  -0.38262  -0.36674
 Alpha  occ. eigenvalues --   -0.35607  -0.35097  -0.32999  -0.32669  -0.31447
 Alpha  occ. eigenvalues --   -0.30441  -0.29928  -0.29000  -0.28145  -0.27471
 Alpha  occ. eigenvalues --   -0.26621  -0.26260  -0.25265  -0.24530
 Alpha virt. eigenvalues --   -0.04081  -0.02957  -0.02397  -0.01232   0.03391
 Alpha virt. eigenvalues --    0.04998   0.06349   0.07593   0.09203   0.09781
 Alpha virt. eigenvalues --    0.10773   0.11297   0.12019   0.12665   0.13364

 Mulliken charges:
               1
     1  N   -0.150586
     2  C    0.144443
     3  H   -0.067496
     4  C    0.068039
     5  C    0.173524
     6  C    0.190304
     7  H   -0.052232
     8  C    0.016269
     9  H   -0.065235
    10  N   -0.223790
    11  N   -0.086110
    12  C   -0.153641
    13  C    0.317956
    14  H   -0.016330
    15  H    0.016015
    16  P    0.970826
    17  O   -0.499051
    18  O   -0.503875
    19  O   -0.417650
    20  C   -0.401914
    21  C    0.242389
    22  C    0.336069
    23  H   -0.018119
    24  H   -0.004169
    25  H   -0.034554
    26  C   -0.193867
    27  C    0.167285
    28  C    0.021271
    29  H   -0.098473
    30  C    0.107199
    31  H   -0.067768
    32  C    0.085087
    33  H   -0.074965
    34  C    0.122992
    35  H   -0.097972
    36  O   -0.118452
    37  H    0.109563
    38  C    0.357464
    39  H    0.008047
    40  H    0.003069
    41  H   -0.025387
    42  H   -0.080776
    43  H   -0.005396
 Sum of Mulliken charges =  -0.00000

 Dipole moment (field-independent basis, Debye):
    X=              3.8543    Y=              7.0127    Z=              1.4050  Tot=              8.1245
 Quadrupole moment (field-independent basis, Debye-Ang):
   XX=           -149.8281   YY=           -143.9753   ZZ=           -136.7864
   XY=             -2.2475   XZ=             -9.1608   YZ=             -8.0944

  Exact polarizability:     248.061       6.802     227.436      -6.853      13.976     152.443
 Approx polarizability:     341.506      12.998     348.282     -18.001      35.613     252.999

 Summary of Natural Population Analysis:

                                       Natural Population
                Natural  -----------------------------------------------
    Atom  No    Charge         Core      Valence    Rydberg      Total
 -----------------------------------------------------------------------
      N    1   -0.46463      1.99927     5.44981    0.01555     7.46463
      C    2   -0.12424      1.99912     4.11150    0.01363     6.12424
      H    3    0.18238      0.00000     0.81482    0.00280     0.81762
      C    4   -0.23893      1.99899     4.22580    0.01414     6.23893
      C    5    0.43157      1.99898     3.54077    0.02869     5.56843
      C    6    0.11759      1.99911     3.86270    0.02060     5.88241
      H    7    0.16245      0.00000     0.83465    0.00290     0.83755
      C    8   -0.23140      1.99911     4.21934    0.01295     6.23140
      H    9    0.18389      0.00000     0.81296    0.00315     0.81611
      N   10   -0.21637      1.99894     5.20005    0.01737     7.21637
      N   11   -0.28610      1.99932     5.26669    0.02009     7.28610
      C   12    0.24567      1.99909     3.72523    0.03002     5.75433
      C   13   -0.58739      1.99914     4.58051    0.00774     6.58739
      H   14    0.21112      0.00000     0.78548    0.00340     0.78888
      H   15    0.22643      0.00000     0.77026    0.00331     0.77357
      P   16    2.43989      9.99758     2.41982    0.14271    12.56011
      O   17   -1.08049      1.99981     7.07476    0.00592     9.08049
      O   18   -0.87167      1.99966     6.86385    0.00815     8.87167
      O   19   -0.82828      1.99959     6.81807    0.01062     8.82828
      C   20   -0.58453      1.99862     4.56106    0.02485     6.58453
      C   21    0.20689      1.99891     3.76196    0.03225     5.79311
      C   22   -0.14693      1.99917     4.13185    0.01591     6.14693
      H   23    0.15635      0.00000     0.84030    0.00335     0.84365
      H   24    0.16902      0.00000     0.82853    0.00245     0.83098
      H   25    0.14770      0.00000     0.84879    0.00351     0.85230
      C   26   -0.14504      1.99884     4.12658    0.01961     6.14504
      C   27    0.35519      1.99864     3.62149    0.02468     5.64481
      C   28   -0.25311      1.99897     4.23810    0.01605     6.25311
      H   29    0.18917      0.00000     0.80760    0.00324     0.81083
      C   30   -0.15504      1.99911     4.14218    0.01375     6.15504
      H   31    0.18263      0.00000     0.81430    0.00307     0.81737
      C   32   -0.19161      1.99910     4.17811    0.01440     6.19161
      H   33    0.18374      0.00000     0.81336    0.00290     0.81626
      C   34   -0.13561      1.99898     4.12152    0.01511     6.13561
      H   35    0.18852      0.00000     0.80850    0.00298     0.81148
      O   36   -0.65174      1.99962     6.63581    0.01631     8.65174
      H   37    0.44329      0.00000     0.55014    0.00657     0.55671
      C   38   -0.13962      1.99898     4.12857    0.01207     6.13962
      H   39    0.17680      0.00000     0.81970    0.00350     0.82320
      H   40    0.17490      0.00000     0.82290    0.00220     0.82510
      H   41    0.15171      0.00000     0.84278    0.00551     0.84829
      H   42    0.19741      0.00000     0.79837    0.00422     0.80259
      H   43    0.20843      0.00000     0.78868    0.00289     0.79157
 =======================================================================
   * Total *    0.00000     57.97664   129.40824    0.61512   188.00000

 ******   28 imaginary frequencies (negative Signs) ******

                      1                      2                      3
                      A                      A                      A
 Frequencies --  -1974.5901             -1485.9806             -1260.1407
 Red. masses --      1.0697                 1.0808                 1.0715
 Frc consts  --      2.4573                 1.4061                 1.0025
 IR Inten    --    127.3398               131.9378                52.2009

                      4                      5                      6
                      A                      A                      A
 Frequencies --  -1257.4477             -1256.0276             -1255.1168
 Red. masses --      1.0743                 1.0142                 1.0093
 Frc consts  --      1.0008                 0.9427                 0.9368
 IR Inten    --     51.8030                 5.4149                 0.2634

                      7                      8                      9
                      A                      A                      A
 Frequencies --  -1245.7177             -1159.7187             -1129.5349
 Red. masses --      1.0089                 1.0344                 1.0335
 Frc consts  --      0.9225                 0.8197                 0.7769
 IR Inten    --      0.4114                 0.2782                 0.2227

                     10                     11                     12
                      A                      A                      A
 Frequencies --  -1082.3486             -1066.1970              -973.3801
 Red. masses --      1.0155                 1.0183                 1.0275
 Frc consts  --      0.7009                 0.6820                 0.5736
 IR Inten    --      0.1093                 1.4730                 1.1225

                     13                     14                     15
                      A                      A                      A
 Frequencies --   -971.3596              -814.6236              -803.4721
 Red. masses --      1.0260                 1.0757                 1.0822
 Frc consts  --      0.5703                 0.4206                 0.4116
 IR Inten    --      0.0111                11.0796                 7.0056

                     16                     17                     18
                      A                      A                      A
 Frequencies --   -679.2960              -659.9307              -648.2171
 Red. masses --      1.4585                 1.1269                 1.1311
 Frc consts  --      0.3965                 0.2892                 0.2800
 IR Inten    --     11.1585                 0.7413                 1.7103

                     19                     20                     21
                      A                      A                      A
 Frequencies --   -646.5189              -633.1289              -627.3903
 Red. masses --      1.2166                 1.3356                 1.2256
 Frc consts  --      0.2996                 0.3154                 0.2842
 IR Inten    --     15.7520                11.5859                 8.1985

                     22                     23                     24
                      A                      A                      A
 Frequencies --   -620.8519              -587.7121              -511.2564
 Red. masses --      1.2321                 1.2459                 1.2710
 Frc consts  --      0.2798                 0.2535                 0.1957
 IR Inten    --      4.8941                 1.2490                 9.9845

                     25                     26                     27
                      A                      A                      A
 Frequencies --   -473.0854              -428.6858              -286.8872
 Red. masses --      1.3378                 1.0988                 1.1332
 Frc consts  --      0.1764                 0.1190                 0.0550
 IR Inten    --      4.0392                14.3467                10.5304

                     28                     29                     30
                      A                      A                      A
 Frequencies --    -76.9720                14.9862                80.4092
 Red. masses --      7.5281                 7.5250                 7.4255
 Frc consts  --      0.0263                 0.0010                 0.0283
 IR Inten    --      1.2228                 0.7975                 1.0548

                     31                     32                     33
                      A                      A                      A
 Frequencies --     98.6522               115.6786               133.0253
 Red. masses --      8.4388                 8.8164                 8.5768
 Frc consts  --      0.0484                 0.0695                 0.0894
 IR Inten    --      1.3284                 0.0809                 1.8258

                     34                     35                     36
                      A                      A                      A
 Frequencies --    177.0251               198.5416               233.6467
 Red. masses --      8.1666                 9.0930                 9.1251
 Frc consts  --      0.1508                 0.2112                 0.2935
 IR Inten    --      0.1111                 0.5902                 8.1272

                     37                     38                     39
                      A                      A                      A
 Frequencies --    236.7115               256.7436               277.5613
 Red. masses --      8.8816                 9.1193                 7.2824
 Frc consts  --      0.2932                 0.3542                 0.3306
 IR Inten    --      0.2736                 0.1752                 0.7971

                     40                     41                     42
                      A                      A                      A
 Frequencies --    314.8291               342.4006               357.2613
 Red. masses --      9.2220                 7.7311                 7.6494
 Frc consts  --      0.5386                 0.5340                 0.5752
 IR Inten    --      1.7095                 4.4536                 2.0696

                     43                     44                     45
                      A                      A                      A
 Frequencies --    377.5278               385.7737               429.8995
 Red. masses --      8.7714                 8.1820                 9.1476
 Frc consts  --      0.7366                 0.7174                 0.9961
 IR Inten    --     21.6625                 7.8571                12.9317

                     46                     47                     48
                      A                      A                      A
 Frequencies --    437.7771               471.8572               532.8870
 Red. masses --      5.9555                10.0265                10.0012
 Frc consts  --      0.6725                 1.3153                 1.6733
 IR Inten    --      6.7643                71.0854                41.6209

                     49                     50                     51
                      A                      A                      A
 Frequencies --    540.4578               560.5040               607.7561
 Red. masses --     11.2579                 7.9381                 7.1632
 Frc consts  --      1.9374                 1.4693                 1.5589
 IR Inten    --      6.5309                10.1369                11.5685

                     52                     53                     54
                      A                      A                      A
 Frequencies --    632.3429               647.8124               651.2203
 Red. masses --      6.3900                 5.1564                 5.4293
 Frc consts  --      1.5054                 1.2750                 1.3566
 IR Inten    --      2.8580                15.5075                 4.8889

                     55                     56                     57
                      A                      A                      A
 Frequencies --    660.9474               676.9815               678.9369
 Red. masses --      7.6362                 3.8543                 3.9432
 Frc consts  --      1.9655                 1.0408                 1.0709
 IR Inten    --      6.1747                38.4716                15.4124

                     58                     59                     60
                      A                      A                      A
 Frequencies --    709.5487               739.3366               742.7552
 Red. masses --      7.4641                 3.1791                 5.8040
 Frc consts  --      2.2141                 1.0239                 1.8865
 IR Inten    --      6.4168                 5.7653                 0.4296

                     61                     62                     63
                      A                      A                      A
 Frequencies --    750.2514               759.8719               765.0935
 Red. masses --      2.4579                 3.1235                 3.2808
 Frc consts  --      0.8151                 1.0626                 1.1315
 IR Inten    --      3.5153                21.3962                11.4521

                     64                     65                     66
                      A                      A                      A
 Frequencies --    774.3140               784.0043               805.1516
 Red. masses --      2.9343                 1.9294                 5.1499
 Frc consts  --      1.0365                 0.6987                 1.9670
 IR Inten    --      6.0093                 4.8676                11.2796

                     67                     68                     69
                      A                      A                      A
 Frequencies --    816.5065               820.3283               831.2276
 Red. masses --      6.6571                 8.0123                 7.3284
 Frc consts  --      2.6149                 3.1768                 2.9833
 IR Inten    --     10.7552                10.8758                 2.7005

                     70                     71                     72
                      A                      A                      A
 Frequencies --    868.3139               873.8494               924.3519
 Red. masses --      3.1417                 5.7500                 5.2825
 Frc consts  --      1.3956                 2.5870                 2.6593
 IR Inten    --     41.9277                13.9736                 1.1499

                     73                     74                     75
                      A                      A                      A
 Frequencies --    933.0466               978.4940              1018.4895
 Red. masses --      2.1913                 2.8285                 8.6896
 Frc consts  --      1.1240                 1.5956                 5.3108
 IR Inten    --    105.9341               130.8235                33.6529

                     76                     77                     78
                      A                      A                      A
 Frequencies --   1033.9546              1067.9235              1094.5523
 Red. masses --      7.9450                 1.4124                 1.2208
 Frc consts  --      5.0043                 0.9490                 0.8617
 IR Inten    --      5.6173                 6.6860                36.9275

                     79                     80                     81
                      A                      A                      A
 Frequencies --   1125.6725              1132.5247              1152.0710
 Red. masses --      4.1170                 1.1168                 6.5504
 Frc consts  --      3.0736                 0.8440                 5.1224
 IR Inten    --      6.9252                13.2766                 1.0670

                     82                     83                     84
                      A                      A                      A
 Frequencies --   1158.7330              1170.1392              1198.2491
 Red. masses --      1.0813                 1.0537                 1.0714
 Frc consts  --      0.8554                 0.8500                 0.9063
 IR Inten    --     33.7713                15.5362                12.4134

                     85                     86                     87
                      A                      A                      A
 Frequencies --   1204.4351              1218.4441              1255.4534
 Red. masses --      7.4044                 1.0814                 3.8863
 Frc consts  --      6.3286                 0.9459                 3.6090
 IR Inten    --     43.9378                35.8442               222.8818

                     88                     89                     90
                      A                      A                      A
 Frequencies --   1278.9485              1300.8409              1337.7473
 Red. masses --      7.4171                 8.7934                 9.2385
 Frc consts  --      7.1481                 8.7671                 9.7409
 IR Inten    --     14.7121                20.2887                23.4952

                     91                     92                     93
                      A                      A                      A
 Frequencies --   1378.3916              1384.1067              1423.6049
 Red. masses --      8.9430                14.1519                 9.1458
 Frc consts  --     10.0110                15.9736                10.9208
 IR Inten    --      9.1202               173.5212                13.5365

                     94                     95                     96
                      A                      A                      A
 Frequencies --   1451.6746              1454.0916              1479.3806
 Red. masses --      9.2954                10.5764                 9.7927
 Frc consts  --     11.5414                13.1756                12.6274
 IR Inten    --     12.7822               252.2954                68.9850

                     97                     98                     99
                      A                      A                      A
 Frequencies --   1505.7778              1516.4037              1571.2516
 Red. masses --     10.6934                 9.7632                10.8042
 Frc consts  --     14.2852                13.2273                15.7158
 IR Inten    --    195.5571                74.1503                69.5358

                    100                    101                    102
                      A                      A                      A
 Frequencies --   1596.7686              1622.2917              1628.6592
 Red. masses --      6.8988                11.1249                10.8761
 Frc consts  --     10.3635                17.2506                16.9975
 IR Inten    --    273.9875                89.3453               118.4185

                    103                    104                    105
                      A                      A                      A
 Frequencies --   1689.2664              1697.1097              1722.6207
 Red. masses --     10.6586                10.9391                10.8189
 Frc consts  --     17.9204                18.5632                18.9152
 IR Inten    --     34.6144                23.5108                45.9174

                    106                    107                    108
                      A                      A                      A
 Frequencies --   4228.4629              4242.8025              4247.2927
 Red. masses --      1.0318                 1.0333                 1.0310
 Frc consts  --     10.8695                10.9595                10.9580
 IR Inten    --     46.4875                 3.0915                17.4246

                    109                    110                    111
                      A                      A                      A
 Frequencies --   4410.8369              4415.8525              4427.7704
 Red. masses --      1.1063                 1.1075                 1.1064
 Frc consts  --     12.6809                12.7234                12.7796
 IR Inten    --     11.2635                 6.4913                 0.2773

                    112                    113                    114
                      A                      A                      A
 Frequencies --   4435.8033              4441.1026              4443.5820
 Red. masses --      1.1078                 1.1084                 1.1064
 Frc consts  --     12.8430                12.8802                12.8714
 IR Inten    --      2.0521                 1.9790                 2.1720

                    115                    116                    117
                      A                      A                      A
 Frequencies --   4761.5160              4765.0530              4767.0582
 Red. masses --      1.0883                 1.0880                 1.0880
 Frc consts  --     14.5374                14.5554                14.5677
 IR Inten    --      0.0473                 1.1421                 0.4569

                    118                    119                    120
                      A                      A                      A
 Frequencies --   4769.9372              4775.8095              4778.1033
 Red. masses --      1.0888                 1.0904                 1.0906
 Frc consts  --     14.5961                14.6535                14.6697
 IR Inten    --      1.9611                 0.1844                 0.6340

                    121                    122                    123
                      A                      A                      A
 Frequencies --   4783.7419              4784.0153              6111.8251
 Red. masses --      1.0934                 1.0931                 1.0671
 Frc consts  --     14.7425                14.7401                23.4853
 IR Inten    --      1.1694                 0.0331               139.0294

 - Thermochemistry -
 -------------------
 Temperature   298.150 Kelvin.  Pressure   1.00000 Atm.
 Atom     1 has atomic number  7 and mass  14.00307

 Molecular mass:   359.10349 amu.
 Principal axes and moments of inertia in atomic units:
                           1         2         3
     Eigenvalues --  5630.631149706.02924**********
           X            0.99998   0.00333  -0.00517
           Y           -0.00334   0.99999  -0.00233
           Z            0.00517   0.00235   0.99998
 This molecule is an asymmetric top.
 Rotational symmetry number  1.
 Warning -- assumption of classical behavior for rotation
           may cause significant error
 Rotational temperatures (Kelvin)      0.01538     0.00892     0.00671
 Rotational constants (GHZ):           0.32052     0.18594     0.13990
   28 imaginary frequencies ignored.
 Zero-point vibrational energy     899991.0 (Joules/Mol)
                                  215.10301 (Kcal/Mol)
 Warning -- explicit consideration of  23 degrees of freedom as
           vibrations may cause significant error
 Vibrational temperatures:     21.56   115.69   141.94   166.44   191.39
          (Kelvin)            254.70   285.66   336.17   340.57   369.40
                              399.35   452.97   492.64   514.02   543.18
                              555.04   618.53   629.86   678.90   766.71
                              777.60   806.44   874.43   909.80   932.06
                              936.96   950.96   974.03   976.84  1020.88
                             1063.74  1068.66  1079.44  1093.29  1100.80
                             1114.07  1128.01  1158.43  1174.77  1180.27
                             1195.95  1249.31  1257.27  1329.94  1342.45
                             1407.83  1465.38  1487.63  1536.50  1574.82
                             1619.59  1629.45  1657.57  1667.16  1683.57
                             1724.01  1732.91  1753.07  1806.32  1840.12
                             1871.62  1924.72  1983.20  1991.42  2048.25
                             2088.64  2092.11  2128.50  2166.48  2181.77
                             2260.68  2297.39  2334.12  2343.28  2430.48
                             2441.76  2478.47  6083.81  6104.45  6110.91
                             6346.21  6353.43  6370.57  6382.13  6389.76
                             6393.32  6850.76  6855.85  6858.73  6862.88
                             6871.32  6874.62  6882.74  6883.13  8793.55

 Zero-point correction=                           0.342788 (Hartree/Particle)
 Thermal correction to Energy=                    0.358309
 Thermal correction to Enthalpy=                  0.359254
 Thermal correction to Gibbs Free Energy=         0.298759
 Sum of electronic and zero-point Energies=          -1462.288198
 Sum of electronic and thermal Energies=             -1462.272678
 Sum of electronic and thermal Enthalpies=           -1462.271733
 Sum of electronic and thermal Free Energies=        -1462.332228

                     E (Thermal)             CV                S
                      KCal/Mol        Cal/Mol-Kelvin    Cal/Mol-Kelvin
 Total                  224.843             63.828            127.321
 Electronic               0.000              0.000              0.000
 Translational            0.889              2.981             43.529
 Rotational               0.889              2.981             34.910
 Vibrational            223.065             57.866             48.883
 Vibration     1          0.593              1.986              7.207
 Vibration     2          0.600              1.962              3.881
 Vibration     3          0.604              1.950              3.481
 Vibration     4          0.608              1.936              3.171
 Vibration     5          0.613              1.920              2.902
 Vibration     6          0.628              1.871              2.360
 Vibration     7          0.637              1.842              2.147
 Vibration     8          0.654              1.789              1.851
 Vibration     9          0.656              1.785              1.827
 Vibration    10          0.666              1.751              1.684
 Vibration    11          0.679              1.715              1.549
 Vibration    12          0.702              1.645              1.337
 Vibration    13          0.722              1.591              1.201
 Vibration    14          0.732              1.560              1.134
 Vibration    15          0.748              1.518              1.049
 Vibration    16          0.754              1.501              1.016
 Vibration    17          0.791              1.405              0.859
 Vibration    18          0.798              1.388              0.834
 Vibration    19          0.829              1.312              0.732
 Vibration    20          0.888              1.177              0.581
 Vibration    21          0.896              1.161              0.564
 Vibration    22          0.916              1.117              0.523
 Vibration    23          0.967              1.015              0.437

 Normal termination of Gaussian 16 at Sat Mar  4 13:39:25 2023.
