 Gaussian 16, Revision C.01,
 Gaussian 16:  ES64L-G16RevC.01  3-Jul-2019

 ----------------------------------------------------------------------
 #p pop=(regular,nbo,savenbos) freq=noraman def2svp empiricaldispersion
 =gd3bj output=wfx pbe1pbe
 ----------------------------------------------------------------------

 ----------------------------------------
 HOYJAI_Complex_3_Ligand_2_ON_Cu_oriented
 ----------------------------------------
 Symbolic Z-matrix:
 Charge = -1 Multiplicity = 1

                         Standard orientation:
 ---------------------------------------------------------------------
 Center     Atomic      Atomic             Coordinates (Angstroms)
 Number     Number       Type             X           Y           Z
 ---------------------------------------------------------------------
      1          7           0        1.790144    0.025710   -1.266159
      2          1           0        1.023573   -0.481282   -1.606348
      3          8           0        3.960722   -0.406238    1.536999
      4          6           0        2.045200   -0.399790    0.128303
      5          1           0        1.664137    0.267160    0.736889
      6          6           0        3.563270   -0.486829    0.374723
      7          6           0        1.479382    1.483520   -1.389968
      8          1           0        1.408518    1.711673   -2.331033
      9          1           0        2.213909    1.995047   -1.016530
     10          6           0        0.209974    1.880391   -0.698173
     11          6           0        0.253672    2.582974    0.497164
     12          1           0        1.069927    2.829009    0.871740
     13          6           0       -1.030999    1.577088   -1.201924
     14          1           0       -1.108342    1.111093   -2.003432
     15          8           0       -4.229151   -1.401893   -0.094317
     16          1           0       -4.550657   -0.966480    0.521737
     17          6           0       -2.880391   -1.504155    0.078691
     18          6           0       -2.238398   -0.963582    1.187007
     19          6           0       -0.098813   -1.709047    0.321147
     20          6           0       -0.770624   -2.238466   -0.764311
     21          1           0       -0.285907   -2.665118   -1.433419
     22          6           0       -2.151432   -2.150004   -0.878489
     23          1           0       -2.580693   -2.531515   -1.609516
     24          6           0        1.410519   -1.747735    0.421679
     25          1           0        1.752557   -2.402912   -0.206143
     26          6           0       -0.866545   -1.075473    1.291184
     27          1           0       -0.443177   -0.713924    2.034695
     28          8           0        4.297557   -0.682699   -0.639638
     29          7           0       -2.141714    2.611792    0.638673
     30          6           0       -0.928848    2.909834    1.121796
     31          1           0       -0.881662    3.366773    1.930139
     32          6           0       -2.162667    1.965264   -0.520911
     33          1           0       -2.989249    1.762905   -0.894033
     34          1           0        1.661996   -2.030092    1.314535
     35          1           0       -2.726767   -0.532147    1.851265
 ---------------------------------------------------------------------

 SCF Done:  E(RPBE1PBE) =  -913.883780413     A.U. after   18 cycles

 The electronic state is 1-A.
 Alpha  occ. eigenvalues --  -19.14210 -18.93676 -18.92504 -14.28695 -14.23735
 Alpha  occ. eigenvalues --  -10.19680 -10.15425 -10.15387 -10.14669 -10.12880
 Alpha  occ. eigenvalues --  -10.12589 -10.12389 -10.12364 -10.12135 -10.12100
 Alpha  occ. eigenvalues --  -10.12015 -10.11988 -10.09951 -10.08661 -10.08126
 Alpha  occ. eigenvalues --   -1.02566  -0.86911  -0.83449  -0.79787  -0.78626
 Alpha  occ. eigenvalues --   -0.73447  -0.72721  -0.70031  -0.69794  -0.68835
 Alpha  occ. eigenvalues --   -0.64077  -0.60244  -0.57353  -0.56767  -0.54962
 Alpha  occ. eigenvalues --   -0.53890  -0.50704  -0.49984  -0.44754  -0.42335
 Alpha  occ. eigenvalues --   -0.42216  -0.41696  -0.40703  -0.37701  -0.37303
 Alpha  occ. eigenvalues --   -0.36796  -0.36457  -0.35961  -0.34796  -0.34278
 Alpha  occ. eigenvalues --   -0.32716  -0.31636  -0.30814  -0.30519  -0.28334
 Alpha  occ. eigenvalues --   -0.27645  -0.26859  -0.26273  -0.25271  -0.24479
 Alpha  occ. eigenvalues --   -0.22886  -0.19910  -0.19058  -0.18401  -0.18190
 Alpha  occ. eigenvalues --   -0.17529  -0.17424  -0.13904  -0.10370  -0.04536
 Alpha  occ. eigenvalues --   -0.04208  -0.02293
 Alpha virt. eigenvalues --    0.07690   0.08347   0.09011   0.11256   0.16308
 Alpha virt. eigenvalues --    0.18730   0.20121   0.20516   0.22054   0.22976
 Alpha virt. eigenvalues --    0.23572   0.24354   0.24524   0.25342   0.26046

 Mulliken charges:
               1
     1  N   -0.234788
     2  H    0.067142
     3  O   -0.420051
     4  C   -0.001932
     5  H   -0.074510
     6  C    0.116123
     7  C    0.413057
     8  H   -0.046701
     9  H   -0.046358
    10  C   -0.143682
    11  C    0.049035
    12  H   -0.093983
    13  C    0.051813
    14  H   -0.121847
    15  O   -0.138019
    16  H    0.083749
    17  C    0.138397
    18  C    0.069535
    19  C   -0.119483
    20  C    0.075596
    21  H   -0.115026
    22  C    0.043117
    23  H   -0.129570
    24  C    0.304195
    25  H   -0.054133
    26  C    0.096982
    27  H   -0.111516
    28  O   -0.445970
    29  N   -0.210482
    30  C    0.174207
    31  H   -0.095424
    32  C    0.193857
    33  H   -0.097711
    34  H   -0.040392
    35  H   -0.135227
 Sum of Mulliken charges =  -1.00000

 Dipole moment (field-independent basis, Debye):
    X=            -14.7576    Y=              2.0537    Z=             -1.2492  Tot=             14.9521
 Quadrupole moment (field-independent basis, Debye-Ang):
   XX=           -202.6024   YY=           -125.4675   ZZ=           -121.2418
   XY=             13.3807   XZ=             -6.1619   YZ=             -0.1161

  Exact polarizability:     207.410      -7.618     132.047      -0.076      20.658     139.297
 Approx polarizability:     324.626     -16.401     190.331      -3.490      53.740     256.015

 Summary of Natural Population Analysis:

                                       Natural Population
                Natural  -----------------------------------------------
    Atom  No    Charge         Core      Valence    Rydberg      Total
 -----------------------------------------------------------------------
      N    1   -0.66620      1.99944     5.64924    0.01752     7.66620
      H    2    0.33939      0.00000     0.65402    0.00659     0.66061
      O    3   -0.78468      1.99974     6.77472    0.01022     8.78468
      C    4   -0.09881      1.99888     4.07381    0.02611     6.09881
      H    5    0.15868      0.00000     0.83197    0.00935     0.84132
      C    6    0.78114      1.99942     3.14437    0.07507     5.21886
      C    7   -0.16495      1.99895     4.14687    0.01913     6.16495
      H    8    0.18302      0.00000     0.81379    0.00319     0.81698
      H    9    0.18806      0.00000     0.80780    0.00413     0.81194
      C   10    0.00661      1.99901     3.97796    0.01642     5.99339
      C   11   -0.21959      1.99897     4.20612    0.01450     6.21959
      H   12    0.17988      0.00000     0.81693    0.00319     0.82012
      C   13   -0.22003      1.99896     4.20529    0.01578     6.22003
      H   14    0.17289      0.00000     0.82298    0.00414     0.82711
      O   15   -0.65854      1.99965     6.64267    0.01622     8.65854
      H   16    0.42559      0.00000     0.56761    0.00681     0.57441
      C   17    0.32328      1.99874     3.65493    0.02305     5.67672
      C   18   -0.25709      1.99898     4.24148    0.01663     6.25709
      C   19   -0.03043      1.99902     4.01252    0.01889     6.03043
      C   20   -0.17602      1.99897     4.16169    0.01536     6.17602
      H   21    0.17130      0.00000     0.82571    0.00299     0.82870
      C   22   -0.24414      1.99897     4.22888    0.01629     6.24414
      H   23    0.17667      0.00000     0.81978    0.00355     0.82333
      C   24   -0.38800      1.99899     4.37210    0.01691     6.38800
      H   25    0.19497      0.00000     0.79816    0.00687     0.80503
      C   26   -0.14761      1.99898     4.13261    0.01602     6.14761
      H   27    0.17422      0.00000     0.82237    0.00341     0.82578
      O   28   -0.78118      1.99976     6.77250    0.00892     8.78118
      N   29   -0.51142      1.99940     5.49433    0.01769     7.51142
      C   30    0.10045      1.99911     3.87845    0.02199     5.89955
      H   31    0.14232      0.00000     0.85477    0.00292     0.85768
      C   32    0.10334      1.99911     3.87419    0.02335     5.89666
      H   33    0.14265      0.00000     0.85391    0.00344     0.85735
      H   34    0.21207      0.00000     0.78096    0.00696     0.78793
      H   35    0.17215      0.00000     0.82422    0.00363     0.82785
 =======================================================================
   * Total *   -1.00000     39.98306   103.53969    0.47725   144.00000

 ******   27 imaginary frequencies (negative Signs) ******

                      1                      2                      3
                      A                      A                      A
 Frequencies --  -2061.7163             -1567.5726             -1446.0626
 Red. masses --      1.0660                 1.0815                 1.0674
 Frc consts  --      2.6697                 1.5657                 1.3151
 IR Inten    --    121.9643               200.8031                75.4271

                      4                      5                      6
                      A                      A                      A
 Frequencies --  -1428.4231             -1397.0908             -1360.5937
 Red. masses --      1.0712                 1.0574                 1.0510
 Frc consts  --      1.2878                 1.2160                 1.1463
 IR Inten    --     43.1111                 3.0873                 0.8778

                      7                      8                      9
                      A                      A                      A
 Frequencies --  -1280.6368             -1268.8600             -1255.8546
 Red. masses --      1.0193                 1.0321                 1.0403
 Frc consts  --      0.9849                 0.9790                 0.9667
 IR Inten    --      0.1571                 0.4772                 0.8591

                     10                     11                     12
                      A                      A                      A
 Frequencies --  -1241.6788             -1077.7009             -1058.9301
 Red. masses --      1.0449                 1.0299                 1.0317
 Frc consts  --      0.9492                 0.7047                 0.6816
 IR Inten    --      1.7494                 0.9288                 0.5453

                     13                     14                     15
                      A                      A                      A
 Frequencies --   -926.4310              -909.8072              -882.5754
 Red. masses --      1.0999                 1.0777                 1.1310
 Frc consts  --      0.5562                 0.5256                 0.5191
 IR Inten    --      4.1534                 5.3359                 1.6037

                     16                     17                     18
                      A                      A                      A
 Frequencies --   -871.0505              -833.1134              -737.6990
 Red. masses --      1.0816                 1.0986                 1.0403
 Frc consts  --      0.4835                 0.4492                 0.3336
 IR Inten    --      6.0540                 2.3658                 6.2305

                     19                     20                     21
                      A                      A                      A
 Frequencies --   -729.8006              -626.6589              -508.3213
 Red. masses --      1.1511                 1.0722                 1.2700
 Frc consts  --      0.3612                 0.2481                 0.1933
 IR Inten    --      0.4650                14.2886                 1.9869

                     22                     23                     24
                      A                      A                      A
 Frequencies --   -449.2083              -440.5896              -378.4609
 Red. masses --      1.2979                 1.3604                 1.4482
 Frc consts  --      0.1543                 0.1556                 0.1222
 IR Inten    --     12.7233                56.7605                 3.9229

                     25                     26                     27
                      A                      A                      A
 Frequencies --   -347.5792              -219.9991              -111.9771
 Red. masses --      1.7396                 1.6107                11.1124
 Frc consts  --      0.1238                 0.0459                 0.0821
 IR Inten    --      2.2710                38.6848                 0.2808

                     28                     29                     30
                      A                      A                      A
 Frequencies --     11.6306                78.0649               162.3707
 Red. masses --      6.5195                 7.1162                 6.8841
 Frc consts  --      0.0005                 0.0256                 0.1069
 IR Inten    --      0.4111                 2.8116                 2.9403

                     31                     32                     33
                      A                      A                      A
 Frequencies --    177.8368               205.9409               209.9942
 Red. masses --      8.4705                 8.0998                 7.5763
 Frc consts  --      0.1578                 0.2024                 0.1968
 IR Inten    --      4.5117                 2.6561                 0.6232

                     34                     35                     36
                      A                      A                      A
 Frequencies --    228.6587               285.2347               321.2305
 Red. masses --      6.4664                 6.5011                 3.2205
 Frc consts  --      0.1992                 0.3116                 0.1958
 IR Inten    --      5.2619                14.2153                 1.1919

                     37                     38                     39
                      A                      A                      A
 Frequencies --    343.4902               426.6695               440.7548
 Red. masses --      4.1371                 3.8128                 4.2390
 Frc consts  --      0.2876                 0.4090                 0.4852
 IR Inten    --      1.5435                 1.7794                 1.0136

                     40                     41                     42
                      A                      A                      A
 Frequencies --    490.9134               522.4941               546.0743
 Red. masses --      4.0214                 9.8632                 5.2503
 Frc consts  --      0.5710                 1.5865                 0.9224
 IR Inten    --      2.8579                 0.0941                 2.4976

                     43                     44                     45
                      A                      A                      A
 Frequencies --    554.1750               579.3096               596.8007
 Red. masses --     10.5487                 3.9725                 4.7911
 Frc consts  --      1.9087                 0.7855                 1.0054
 IR Inten    --      0.1586                11.7106                17.9157

                     46                     47                     48
                      A                      A                      A
 Frequencies --    658.9732               671.6459               679.9948
 Red. masses --      3.3813                 4.6106                 5.2453
 Frc consts  --      0.8651                 1.2254                 1.4290
 IR Inten    --      1.1818                 3.5471                 0.2171

                     49                     50                     51
                      A                      A                      A
 Frequencies --    705.6827               713.4818               735.5494
 Red. masses --      5.7087                 5.2957                 5.5567
 Frc consts  --      1.6750                 1.5883                 1.7713
 IR Inten    --      1.9334                15.2013                 3.0410

                     52                     53                     54
                      A                      A                      A
 Frequencies --    777.6582               780.9401               791.8120
 Red. masses --      4.0842                 4.9372                 4.9846
 Frc consts  --      1.4553                 1.7740                 1.8413
 IR Inten    --      0.6718                 5.6026                19.9136

                     55                     56                     57
                      A                      A                      A
 Frequencies --    806.6841               829.8127               838.9811
 Red. masses --      5.6718                 6.3037                 6.8229
 Frc consts  --      2.1746                 2.5574                 2.8296
 IR Inten    --     19.6367                 6.6479                21.1739

                     58                     59                     60
                      A                      A                      A
 Frequencies --    869.3934               915.7644               929.8945
 Red. masses --      7.7145                 2.3044                 4.8844
 Frc consts  --      3.4355                 1.1386                 2.4885
 IR Inten    --     12.5416                 3.9707                 0.9429

                     61                     62                     63
                      A                      A                      A
 Frequencies --    940.3994               965.7506               975.4686
 Red. masses --      4.7901                 1.4783                 1.4944
 Frc consts  --      2.4959                 0.8124                 0.8378
 IR Inten    --      3.3451                13.0616                 3.5761

                     64                     65                     66
                      A                      A                      A
 Frequencies --   1015.6057              1054.3168              1063.7724
 Red. masses --      2.8859                 6.2194                 2.2663
 Frc consts  --      1.7538                 4.0733                 1.5110
 IR Inten    --     16.8504                 9.7226                23.3348

                     67                     68                     69
                      A                      A                      A
 Frequencies --   1149.5342              1165.2850              1179.6010
 Red. masses --      5.2450                 4.7093                 4.9786
 Frc consts  --      4.0836                 3.7677                 4.0816
 IR Inten    --     12.1471                 9.7531                16.4545

                     70                     71                     72
                      A                      A                      A
 Frequencies --   1235.4232              1319.8617              1324.9952
 Red. masses --      7.2518                 7.7257                 1.3960
 Frc consts  --      6.5212                 7.9294                 1.4440
 IR Inten    --      1.1283                38.1254                23.7302

                     73                     74                     75
                      A                      A                      A
 Frequencies --   1394.3148              1412.0222              1414.8688
 Red. masses --      8.0283                 8.5637                 9.0119
 Frc consts  --      9.1960                10.0599                10.6291
 IR Inten    --      5.0185                 0.0999                11.7703

                     76                     77                     78
                      A                      A                      A
 Frequencies --   1437.0645              1454.8059              1470.0396
 Red. masses --      9.6366                 9.5786                 8.3735
 Frc consts  --     11.7253                11.9444                10.6615
 IR Inten    --    320.8482                 1.5928                44.0388

                     79                     80                     81
                      A                      A                      A
 Frequencies --   1519.4568              1672.3295              1680.7003
 Red. masses --      9.7817                10.8568                10.9583
 Frc consts  --     13.3059                17.8894                18.2379
 IR Inten    --    139.3157                71.3087                29.0592

                     82                     83                     84
                      A                      A                      A
 Frequencies --   1702.1743              1741.0690              1806.8638
 Red. masses --      9.9167                 9.8637                12.5754
 Frc consts  --     16.9288                17.6165                24.1892
 IR Inten    --     16.2321                25.4372               406.5821

                     85                     86                     87
                      A                      A                      A
 Frequencies --   4012.8999              4350.8689              4420.0453
 Red. masses --      1.0747                 1.0861                 1.0604
 Frc consts  --     10.1966                12.1133                12.2064
 IR Inten    --      9.8820                12.9971                17.5997

                     88                     89                     90
                      A                      A                      A
 Frequencies --   4429.2279              4544.5144              4552.1152
 Red. masses --      1.0601                 1.1093                 1.1083
 Frc consts  --     12.2531                13.4982                13.5316
 IR Inten    --      7.2765                 2.9067                 1.7478

                     91                     92                     93
                      A                      A                      A
 Frequencies --   5018.5140              5021.7151              5024.7181
 Red. masses --      1.0890                 1.0886                 1.0886
 Frc consts  --     16.1591                16.1737                16.1932
 IR Inten    --      0.7003                 1.4616                 0.0079

                     94                     95                     96
                      A                      A                      A
 Frequencies --   5029.5763              5037.4664              5041.1953
 Red. masses --      1.0878                 1.0899                 1.0906
 Frc consts  --     16.2135                16.2950                16.3303
 IR Inten    --      0.8551                 5.9580                 0.2741

                     97                     98                     99
                      A                      A                      A
 Frequencies --   5044.6034              5050.2266              6306.9892
 Red. masses --      1.0906                 1.0898                 1.0669
 Frc consts  --     16.3525                16.3768                25.0037
 IR Inten    --      2.9770                 0.0410                99.9878

 - Thermochemistry -
 -------------------
 Temperature   298.150 Kelvin.  Pressure   1.00000 Atm.
 Atom     1 has atomic number  7 and mass  14.00307

 Molecular mass:   271.10827 amu.
 Principal axes and moments of inertia in atomic units:
                           1         2         3
     Eigenvalues --  3559.045206437.233338337.84553
           X            0.99997   0.00769  -0.00272
           Y           -0.00767   0.99996   0.00534
           Z            0.00276  -0.00532   0.99998
 This molecule is an asymmetric top.
 Rotational symmetry number  1.
 Warning -- assumption of classical behavior for rotation
           may cause significant error
 Rotational temperatures (Kelvin)      0.02434     0.01346     0.01039
 Rotational constants (GHZ):           0.50709     0.28036     0.21645
   27 imaginary frequencies ignored.
 Zero-point vibrational energy     734915.7 (Joules/Mol)
                                  175.64907 (Kcal/Mol)
 Warning -- explicit consideration of  18 degrees of freedom as
           vibrations may cause significant error
 Vibrational temperatures:     16.73   112.32   233.62   255.87   296.30
          (Kelvin)            302.13   328.99   410.39   462.18   494.21
                              613.88   634.15   706.31   751.75   785.68
                              797.33   833.50   858.66   948.12   966.35
                              978.36  1015.32  1026.54  1058.29  1118.88
                             1123.60  1139.24  1160.64  1193.92  1207.11
                             1250.86  1317.58  1337.91  1353.02  1389.50
                             1403.48  1461.23  1516.93  1530.53  1653.92
                             1676.59  1697.18  1777.50  1898.99  1906.37
                             2006.11  2031.58  2035.68  2067.62  2093.14
                             2115.06  2186.16  2406.11  2418.15  2449.05
                             2505.01  2599.67  5773.67  6259.93  6359.46
                             6372.67  6538.54  6549.48  7220.52  7225.13
                             7229.45  7236.44  7247.79  7253.16  7258.06
                             7266.15  9074.35

 Zero-point correction=                           0.279915 (Hartree/Particle)
 Thermal correction to Energy=                    0.291870
 Thermal correction to Enthalpy=                  0.292814
 Thermal correction to Gibbs Free Energy=         0.239457
 Sum of electronic and zero-point Energies=           -913.603866
 Sum of electronic and thermal Energies=              -913.591910
 Sum of electronic and thermal Enthalpies=            -913.590966
 Sum of electronic and thermal Free Energies=         -913.644324

                     E (Thermal)             CV                S
                      KCal/Mol        Cal/Mol-Kelvin    Cal/Mol-Kelvin
 Total                  183.151             48.325            112.301
 Electronic               0.000              0.000              0.000
 Translational            0.889              2.981             42.691
 Rotational               0.889              2.981             33.612
 Vibrational            181.374             42.363             35.998
 Vibration     1          0.593              1.987              7.711
 Vibration     2          0.599              1.964              3.939
 Vibration     3          0.622              1.889              2.522
 Vibration     4          0.628              1.870              2.351
 Vibration     5          0.640              1.831              2.079
 Vibration     6          0.642              1.826              2.044
 Vibration     7          0.651              1.797              1.889
 Vibration     8          0.683              1.701              1.502
 Vibration     9          0.707              1.633              1.304
 Vibration    10          0.722              1.589              1.196
 Vibration    11          0.788              1.412              0.870
 Vibration    12          0.801              1.381              0.824
 Vibration    13          0.847              1.270              0.681
 Vibration    14          0.877              1.200              0.604
 Vibration    15          0.901              1.148              0.552
 Vibration    16          0.910              1.131              0.536
 Vibration    17          0.936              1.076              0.487
 Vibration    18          0.955              1.039              0.455

 Normal termination of Gaussian 16 at Mon Mar  6 11:28:22 2023.
