 Gaussian 16, Revision C.01,
 Gaussian 16:  ES64L-G16RevC.01  3-Jul-2019

 ----------------------------------------------------------------------
 #p pop=(regular,nbo,savenbos) freq=noraman def2svp empiricaldispersion
 =gd3bj output=wfx pbe1pbe
 ----------------------------------------------------------------------

 ----------------------------------------
 HUJVOY_Complex_0_Ligand_0_NN_Cu_oriented
 ----------------------------------------
 Symbolic Z-matrix:
 Charge =  0 Multiplicity = 1

                         Standard orientation:
 ---------------------------------------------------------------------
 Center     Atomic      Atomic             Coordinates (Angstroms)
 Number     Number       Type             X           Y           Z
 ---------------------------------------------------------------------
      1          6           0        1.429583   -1.257017    0.624323
      2          1           0        2.270750   -1.410154    1.121838
      3          1           0        0.971450   -2.128443    0.522400
      4          6           0        0.543343   -0.308128    1.410786
      5          1           0        0.424391   -0.703404    2.321725
      6          6           0       -0.847054   -0.058810    0.843420
      7          1           0       -1.320645    0.552195    1.476805
      8          6           0       -1.685861   -1.320613    0.719339
      9          1           0       -1.737636   -1.769010    1.600081
     10          1           0       -1.252529   -1.943717    0.083341
     11          6           0       -3.098742   -0.994851    0.228509
     12          1           0       -3.600982   -1.834613    0.077749
     13          1           0       -3.576957   -0.467038    0.915807
     14          6           0       -3.023363   -0.201917   -1.068358
     15          1           0       -3.936018    0.073962   -1.337341
     16          1           0       -2.653137   -0.777048   -1.784043
     17          6           0       -2.148800    1.032367   -0.912506
     18          1           0       -2.104397    1.517765   -1.774522
     19          1           0       -2.547742    1.638701   -0.239765
     20          6           0        0.055978    1.875705   -0.310691
     21          1           0       -0.421501    2.512050    0.279234
     22          1           0        0.184600    2.311035   -1.190476
     23          6           0        1.407991    1.549138    0.291203
     24          1           0        1.890379    2.413661    0.433078
     25          6           0        2.302198    0.663897   -0.563979
     26          7           0        1.741135   -0.704423   -0.714181
     27          7           0       -0.767216    0.647094   -0.482134
     28          8           0        1.230909    0.937673    1.578204
     29          6           0        2.762079   -1.563855   -1.365788
     30          1           0        2.966026   -1.210174   -2.256686
     31          1           0        3.578560   -1.570939   -0.822970
     32          1           0        2.415267   -2.477357   -1.448598
     33          1           0        2.404573    1.072493   -1.458705
     34          1           0        3.196725    0.604475   -0.147941
 ---------------------------------------------------------------------

 SCF Done:  E(RPBE1PBE) =  -614.595437456     A.U. after   13 cycles

 The electronic state is 1-A.
 Alpha  occ. eigenvalues --  -19.19836 -14.36500 -14.36430 -10.26281 -10.26074
 Alpha  occ. eigenvalues --  -10.23469 -10.22216 -10.22146 -10.22049 -10.22007
 Alpha  occ. eigenvalues --  -10.20713 -10.19861 -10.19798 -10.19505  -1.04796
 Alpha  occ. eigenvalues --   -0.92603  -0.91984  -0.83380  -0.80634  -0.77711
 Alpha  occ. eigenvalues --   -0.74482  -0.71924  -0.67888  -0.66430  -0.64148
 Alpha  occ. eigenvalues --   -0.62959  -0.59141  -0.55109  -0.52418  -0.50663
 Alpha  occ. eigenvalues --   -0.49684  -0.49278  -0.48084  -0.47494  -0.47066
 Alpha  occ. eigenvalues --   -0.45558  -0.44359  -0.43831  -0.42409  -0.41576
 Alpha  occ. eigenvalues --   -0.40183  -0.39470  -0.38837  -0.38805  -0.36845
 Alpha  occ. eigenvalues --   -0.36438  -0.35574  -0.34532  -0.34084  -0.31782
 Alpha  occ. eigenvalues --   -0.29413  -0.25651  -0.23068  -0.19410
 Alpha virt. eigenvalues --    0.07515   0.09100   0.09479   0.10433   0.11472
 Alpha virt. eigenvalues --    0.12742   0.12786   0.13647   0.13928   0.14912
 Alpha virt. eigenvalues --    0.15876   0.16310   0.16421   0.17072   0.17493

 Mulliken charges:
               1
     1  C    0.305693
     2  H   -0.045413
     3  H   -0.027424
     4  C    0.142038
     5  H   -0.027214
     6  C    0.068730
     7  H   -0.043572
     8  C    0.117429
     9  H   -0.024179
    10  H   -0.007552
    11  C    0.053229
    12  H   -0.014867
    13  H   -0.023964
    14  C    0.067853
    15  H   -0.018592
    16  H   -0.008994
    17  C    0.215521
    18  H   -0.021329
    19  H   -0.050393
    20  C    0.313518
    21  H   -0.042328
    22  H   -0.028409
    23  C    0.086975
    24  H   -0.020690
    25  C    0.292139
    26  N   -0.495947
    27  N   -0.470565
    28  O   -0.416104
    29  C    0.275650
    30  H   -0.016370
    31  H   -0.046595
    32  H   -0.017593
    33  H   -0.027226
    34  H   -0.043457
 Sum of Mulliken charges =  -0.00000

 Dipole moment (field-independent basis, Debye):
    X=             -0.2423    Y=             -0.2399    Z=             -0.5070  Tot=              0.6110
 Quadrupole moment (field-independent basis, Debye-Ang):
   XX=            -80.4153   YY=            -80.4273   ZZ=            -87.6153
   XY=             -0.7005   XZ=             -3.2479   YZ=             -4.1753

  Exact polarizability:     129.459       1.012     114.234      -1.444      -4.035     102.983
 Approx polarizability:     156.384       2.589     157.007      -1.026      -3.882     150.504

 Summary of Natural Population Analysis:

                                       Natural Population
                Natural  -----------------------------------------------
    Atom  No    Charge         Core      Valence    Rydberg      Total
 -----------------------------------------------------------------------
      C    1   -0.19325      1.99904     4.17505    0.01916     6.19325
      H    2    0.16902      0.00000     0.82402    0.00696     0.83098
      H    3    0.19306      0.00000     0.80370    0.00324     0.80694
      C    4    0.14405      1.99885     3.83140    0.02571     5.85595
      H    5    0.19548      0.00000     0.80113    0.00339     0.80452
      C    6   -0.03563      1.99896     4.01497    0.02170     6.03563
      H    7    0.17535      0.00000     0.81628    0.00836     0.82465
      C    8   -0.38626      1.99908     4.37291    0.01427     6.38626
      H    9    0.19702      0.00000     0.79937    0.00361     0.80298
      H   10    0.19766      0.00000     0.79755    0.00479     0.80234
      C   11   -0.36710      1.99913     4.35549    0.01249     6.36710
      H   12    0.19623      0.00000     0.80038    0.00339     0.80377
      H   13    0.18355      0.00000     0.81204    0.00441     0.81645
      C   14   -0.37910      1.99913     4.36754    0.01244     6.37910
      H   15    0.19588      0.00000     0.80077    0.00335     0.80412
      H   16    0.19355      0.00000     0.80148    0.00498     0.80645
      C   17   -0.15844      1.99908     4.14270    0.01665     6.15844
      H   18    0.19011      0.00000     0.80673    0.00316     0.80989
      H   19    0.15505      0.00000     0.83840    0.00655     0.84495
      C   20   -0.18972      1.99904     4.17180    0.01889     6.18972
      H   21    0.17042      0.00000     0.82287    0.00671     0.82958
      H   22    0.19463      0.00000     0.80223    0.00314     0.80537
      C   23    0.14174      1.99893     3.83501    0.02432     5.85826
      H   24    0.19278      0.00000     0.80396    0.00326     0.80722
      C   25   -0.19194      1.99903     4.17427    0.01864     6.19194
      N   26   -0.54540      1.99944     5.53189    0.01407     7.54540
      N   27   -0.56618      1.99940     5.55194    0.01484     7.56618
      O   28   -0.62065      1.99976     6.60936    0.01153     8.62065
      C   29   -0.32974      1.99916     4.31900    0.01158     6.32974
      H   30    0.18352      0.00000     0.81419    0.00229     0.81648
      H   31    0.15161      0.00000     0.84286    0.00553     0.84839
      H   32    0.18343      0.00000     0.81430    0.00227     0.81657
      H   33    0.19283      0.00000     0.80394    0.00323     0.80717
      H   34    0.16646      0.00000     0.82652    0.00701     0.83354
 =======================================================================
   * Total *   -0.00000     27.98804    79.68605    0.32592   108.00000

 ******   15 imaginary frequencies (negative Signs) ******

                      1                      2                      3
                      A                      A                      A
 Frequencies --  -1230.5157              -933.7525              -911.7859
 Red. masses --      1.0109                 1.0545                 1.0461
 Frc consts  --      0.9018                 0.5417                 0.5124
 IR Inten    --      0.0557                 2.9736                 0.5699

                      4                      5                      6
                      A                      A                      A
 Frequencies --   -904.5447              -884.2673              -877.4353
 Red. masses --      1.0460                 1.0484                 1.0676
 Frc consts  --      0.5042                 0.4830                 0.4843
 IR Inten    --      1.9847                 0.1672                 1.5251

                      7                      8                      9
                      A                      A                      A
 Frequencies --   -877.1702              -867.2956              -728.3347
 Red. masses --      1.0376                 1.0528                 1.1390
 Frc consts  --      0.4704                 0.4666                 0.3560
 IR Inten    --      1.9821                 1.0779                 1.0381

                     10                     11                     12
                      A                      A                      A
 Frequencies --   -724.6084              -387.7095              -339.0696
 Red. masses --      1.1192                 2.0495                 1.9792
 Frc consts  --      0.3462                 0.1815                 0.1341
 IR Inten    --      1.7390                 0.1173                 0.0046

                     13                     14                     15
                      A                      A                      A
 Frequencies --   -289.8855              -256.2858              -237.3626
 Red. masses --      1.5148                 2.4315                 1.9399
 Frc consts  --      0.0750                 0.0941                 0.0644
 IR Inten    --      0.4053                 0.0809                 0.4727

                     16                     17                     18
                      A                      A                      A
 Frequencies --     53.1503               106.5219               153.9856
 Red. masses --      1.5303                 1.7831                 2.2847
 Frc consts  --      0.0025                 0.0119                 0.0319
 IR Inten    --      0.8147                 0.0818                 1.0491

                     19                     20                     21
                      A                      A                      A
 Frequencies --    193.2215               218.3656               348.1719
 Red. masses --      2.3947                 2.4454                 1.9285
 Frc consts  --      0.0527                 0.0687                 0.1377
 IR Inten    --      0.5783                 0.5973                 6.5269

                     22                     23                     24
                      A                      A                      A
 Frequencies --    395.6024               468.9905               486.3723
 Red. masses --      2.0002                 1.3839                 1.8518
 Frc consts  --      0.1844                 0.1793                 0.2581
 IR Inten    --      0.8105                 3.2103                 3.3513

                     25                     26                     27
                      A                      A                      A
 Frequencies --    507.3122               558.6390               578.2409
 Red. masses --      1.6083                 2.6137                 2.3972
 Frc consts  --      0.2439                 0.4806                 0.4722
 IR Inten    --      4.9335                 6.0684                 5.2734

                     28                     29                     30
                      A                      A                      A
 Frequencies --    587.8262               605.6916               623.3897
 Red. masses --      1.4708                 2.1451                 1.6546
 Frc consts  --      0.2994                 0.4637                 0.3788
 IR Inten    --      1.5971                 5.1101                 3.5085

                     31                     32                     33
                      A                      A                      A
 Frequencies --    647.6506               669.3495               671.4687
 Red. masses --      1.6467                 1.4692                 1.4912
 Frc consts  --      0.4070                 0.3878                 0.3961
 IR Inten    --      1.0648                10.4343                17.2072

                     34                     35                     36
                      A                      A                      A
 Frequencies --    692.4740               717.8244               730.2914
 Red. masses --      1.5298                 2.0646                 1.8281
 Frc consts  --      0.4322                 0.6268                 0.5744
 IR Inten    --      1.3890                 1.9130                 1.1501

                     37                     38                     39
                      A                      A                      A
 Frequencies --    755.9913               781.6436               791.5191
 Red. masses --      1.4494                 2.1704                 1.5480
 Frc consts  --      0.4881                 0.7813                 0.5714
 IR Inten    --      5.7308                 1.2782                 2.1269

                     40                     41                     42
                      A                      A                      A
 Frequencies --    807.7077               838.5799               878.1197
 Red. masses --      2.1607                 1.9929                 1.5366
 Frc consts  --      0.8305                 0.8257                 0.6981
 IR Inten    --      1.3600                 3.9997                 1.2659

                     43                     44                     45
                      A                      A                      A
 Frequencies --    886.2485               900.4800               906.8407
 Red. masses --      2.3175                 2.3386                 1.6691
 Frc consts  --      1.0725                 1.1173                 0.8087
 IR Inten    --      2.6481                 3.2346                 1.0002

                     46                     47                     48
                      A                      A                      A
 Frequencies --    937.1808               947.3492               962.3880
 Red. masses --      1.9383                 1.9029                 1.8204
 Frc consts  --      1.0030                 1.0062                 0.9934
 IR Inten    --      2.6632                 0.8748                 1.6242

                     49                     50                     51
                      A                      A                      A
 Frequencies --    972.1282               993.5992              1014.6757
 Red. masses --      1.7986                 2.7575                 2.2000
 Frc consts  --      1.0015                 1.6039                 1.3345
 IR Inten    --      1.0451                 1.7761                11.0053

                     52                     53                     54
                      A                      A                      A
 Frequencies --   1033.7843              1051.7223              1067.0583
 Red. masses --      2.0535                 2.4497                 2.6720
 Frc consts  --      1.2930                 1.5965                 1.7925
 IR Inten    --      3.2738                 6.6576                 7.8605

                     55                     56                     57
                      A                      A                      A
 Frequencies --   1075.6418              1086.3225              1090.3186
 Red. masses --      2.0497                 1.8572                 1.5560
 Frc consts  --      1.3973                 1.2913                 1.0899
 IR Inten    --      6.0118                14.8732                19.2560

                     58                     59                     60
                      A                      A                      A
 Frequencies --   1093.1071              1103.0157              1113.4253
 Red. masses --      1.8276                 1.9417                 1.1182
 Frc consts  --      1.2866                 1.3919                 0.8168
 IR Inten    --     10.8383                 6.2200                 5.0250

                     61                     62                     63
                      A                      A                      A
 Frequencies --   1121.5959              1127.7718              1136.3520
 Red. masses --      1.1573                 1.6088                 1.4040
 Frc consts  --      0.8578                 1.2056                 1.0682
 IR Inten    --     16.5264                17.9981                 7.2841

                     64                     65                     66
                      A                      A                      A
 Frequencies --   1138.0111              1147.4883              1159.7895
 Red. masses --      1.3600                 1.5401                 2.1693
 Frc consts  --      1.0377                 1.1948                 1.7192
 IR Inten    --      9.0097                19.3829                20.5824

                     67                     68                     69
                      A                      A                      A
 Frequencies --   1164.1624              1166.5498              1173.1500
 Red. masses --      1.7916                 3.7586                 2.6396
 Frc consts  --      1.4306                 3.0136                 2.1404
 IR Inten    --     67.4525                33.4005                57.9507

                     70                     71                     72
                      A                      A                      A
 Frequencies --   1190.9193              1199.1993              1233.5241
 Red. masses --      3.4381                 4.4470                 3.6477
 Frc consts  --      2.8730                 3.7679                 3.2701
 IR Inten    --     25.2728                 5.6683                 8.1573

                     73                     74                     75
                      A                      A                      A
 Frequencies --   1244.3085              1261.4575              1273.8033
 Red. masses --      6.3890                 3.6415                 3.5136
 Frc consts  --      5.8282                 3.4141                 3.3590
 IR Inten    --      0.7827                17.5024                 5.8364

                     76                     77                     78
                      A                      A                      A
 Frequencies --   1300.3461              4103.8684              4133.5872
 Red. masses --      7.8921                 1.0860                 1.0874
 Frc consts  --      7.8625                10.7767                10.9465
 IR Inten    --      2.4257                35.4274                18.7333

                     79                     80                     81
                      A                      A                      A
 Frequencies --   4136.1139              4173.8004              4176.0520
 Red. masses --      1.0887                 1.0600                 1.0590
 Frc consts  --     10.9734                10.8798                10.8808
 IR Inten    --      6.2619                25.5215                55.0490

                     82                     83                     84
                      A                      A                      A
 Frequencies --   4182.6391              4185.0527              4188.2922
 Red. masses --      1.0595                 1.0599                 1.0601
 Frc consts  --     10.9212                10.9372                10.9566
 IR Inten    --     29.4992                 8.4173                34.4072

                     85                     86                     87
                      A                      A                      A
 Frequencies --   4191.6891              4192.4989              4222.5987
 Red. masses --      1.0610                 1.0594                 1.0309
 Frc consts  --     10.9831                10.9716                10.8297
 IR Inten    --     28.8815                31.2125                42.9525

                     88                     89                     90
                      A                      A                      A
 Frequencies --   4286.0410              4288.8059              4292.6743
 Red. masses --      1.1084                 1.1096                 1.1090
 Frc consts  --     11.9965                12.0254                12.0406
 IR Inten    --     25.3283                 2.5679                19.8019

                     91                     92                     93
                      A                      A                      A
 Frequencies --   4295.2802              4300.0778              4304.5826
 Red. masses --      1.1092                 1.1084                 1.1088
 Frc consts  --     12.0567                12.0754                12.1047
 IR Inten    --      4.9121                 6.5503                12.2002

                     94                     95                     96
                      A                      A                      A
 Frequencies --   4304.6028              4404.7587              4427.7895
 Red. masses --      1.1089                 1.1071                 1.1078
 Frc consts  --     12.1058                12.6551                12.7960
 IR Inten    --     24.0555                20.2093                 4.8177

 - Thermochemistry -
 -------------------
 Temperature   298.150 Kelvin.  Pressure   1.00000 Atm.
 Atom     1 has atomic number  6 and mass  12.00000

 Molecular mass:   196.15756 amu.
 Principal axes and moments of inertia in atomic units:
                           1         2         3
     Eigenvalues --  1536.490163226.893903488.19087
           X            0.99988  -0.01076  -0.01148
           Y            0.01015   0.99862  -0.05144
           Z            0.01202   0.05131   0.99861
 This molecule is an asymmetric top.
 Rotational symmetry number  1.
 Warning -- assumption of classical behavior for rotation
           may cause significant error
 Rotational temperatures (Kelvin)      0.05637     0.02684     0.02483
 Rotational constants (GHZ):           1.17459     0.55928     0.51739
   15 imaginary frequencies ignored.
 Zero-point vibrational energy     819039.0 (Joules/Mol)
                                  195.75501 (Kcal/Mol)
 Warning -- explicit consideration of  14 degrees of freedom as
           vibrations may cause significant error
 Vibrational temperatures:     76.47   153.26   221.55   278.00   314.18
          (Kelvin)            500.94   569.18   674.77   699.78   729.91
                              803.76   831.96   845.75   871.46   896.92
                              931.82   963.04   966.09   996.32  1032.79
                             1050.73  1087.70  1124.61  1138.82  1162.11
                             1206.53  1263.42  1275.11  1295.59  1304.74
                             1348.39  1363.02  1384.66  1398.68  1429.57
                             1459.89  1487.39  1513.19  1535.26  1547.61
                             1562.98  1568.73  1572.74  1586.99  1601.97
                             1613.73  1622.61  1634.96  1637.34  1650.98
                             1668.68  1674.97  1678.40  1687.90  1713.47
                             1725.38  1774.77  1790.28  1814.96  1832.72
                             1870.91  5904.55  5947.31  5950.95  6005.17
                             6008.41  6017.88  6021.36  6026.02  6030.91
                             6032.07  6075.38  6166.66  6170.64  6176.20
                             6179.95  6186.85  6193.33  6193.36  6337.47
                             6370.60

 Zero-point correction=                           0.311955 (Hartree/Particle)
 Thermal correction to Energy=                    0.322394
 Thermal correction to Enthalpy=                  0.323338
 Thermal correction to Gibbs Free Energy=         0.275891
 Sum of electronic and zero-point Energies=           -614.283482
 Sum of electronic and thermal Energies=              -614.273043
 Sum of electronic and thermal Enthalpies=            -614.272099
 Sum of electronic and thermal Free Energies=         -614.319546

                     E (Thermal)             CV                S
                      KCal/Mol        Cal/Mol-Kelvin    Cal/Mol-Kelvin
 Total                  202.305             46.632             99.860
 Electronic               0.000              0.000              0.000
 Translational            0.889              2.981             41.726
 Rotational               0.889              2.981             31.226
 Vibrational            200.528             40.671             26.908
 Vibration     1          0.596              1.976              4.697
 Vibration     2          0.605              1.944              3.331
 Vibration     3          0.620              1.898              2.622
 Vibration     4          0.635              1.849              2.197
 Vibration     5          0.646              1.813              1.973
 Vibration     6          0.726              1.579              1.174
 Vibration     7          0.762              1.480              0.979
 Vibration     8          0.826              1.319              0.740
 Vibration     9          0.842              1.280              0.693
 Vibration    10          0.863              1.234              0.640
 Vibration    11          0.914              1.121              0.527
 Vibration    12          0.935              1.078              0.489
 Vibration    13          0.945              1.058              0.471
 Vibration    14          0.964              1.020              0.440

 Normal termination of Gaussian 16 at Sat Mar  4 12:11:06 2023.
