 Gaussian 16, Revision C.01,
 Gaussian 16:  ES64L-G16RevC.01  3-Jul-2019

 ----------------------------------------------------------------------
 #p pop=(regular,nbo,savenbos) freq=noraman def2svp empiricaldispersion
 =gd3bj output=wfx pbe1pbe
 ----------------------------------------------------------------------

 ----------------------------------------
 HUSDOO_Complex_1_Ligand_1_NN_Cu_oriented
 ----------------------------------------
 Symbolic Z-matrix:
 Charge = -1 Multiplicity = 1

                         Standard orientation:
 ---------------------------------------------------------------------
 Center     Atomic      Atomic             Coordinates (Angstroms)
 Number     Number       Type             X           Y           Z
 ---------------------------------------------------------------------
      1         16           0        1.914422    0.033505   -0.862801
      2          7           0       -2.172945    0.526552   -0.126996
      3          8           0        2.449554    1.202448   -1.499708
      4          9           0        2.197296   -0.802481    1.641499
      5          9           0        3.969398    0.077853    0.770528
      6          9           0        2.334073    1.342980    1.397777
      7          7           0        0.360150    0.140099   -0.713270
      8          6           0       -1.817340   -0.772633   -0.112637
      9          6           0       -3.463104    0.890273    0.071022
     10          6           0       -0.363108   -1.096146   -0.353868
     11          1           0        0.031950   -1.491273    0.463681
     12          1           0       -0.283985   -1.756875   -1.086940
     13          6           0       -2.751069   -1.776025    0.125750
     14          1           0       -2.495393   -2.691421    0.112714
     15          6           0       -3.813182    2.352253   -0.071203
     16          1           0       -3.001229    2.865545   -0.264140
     17          1           0       -4.213166    2.675693    0.763366
     18          1           0       -4.453270    2.465274   -0.804712
     19          6           0        2.628807    0.167369    0.832574
     20          6           0       -4.423788   -0.074983    0.347342
     21          1           0       -5.324367    0.180502    0.510537
     22          6           0       -4.062191   -1.411476    0.384450
     23          1           0       -4.710925   -2.075988    0.584155
     24          8           0        2.349462   -1.278830   -1.277891
 ---------------------------------------------------------------------

 SCF Done:  E(RPBE1PBE) =  -1265.38538471     A.U. after   14 cycles

 The electronic state is 1-A.
 Alpha  occ. eigenvalues --  -89.03004 -24.66725 -24.65775 -24.65570 -19.00546
 Alpha  occ. eigenvalues --  -19.00479 -14.25778 -14.16264 -10.30959 -10.16474
 Alpha  occ. eigenvalues --  -10.15134 -10.13280 -10.11855 -10.11578 -10.09922
 Alpha  occ. eigenvalues --  -10.09255  -7.99802  -5.94018  -5.93944  -5.93818
 Alpha  occ. eigenvalues --   -1.18722  -1.09737  -1.08924  -0.95579  -0.84194
 Alpha  occ. eigenvalues --   -0.83675  -0.73188  -0.71692  -0.69702  -0.64022
 Alpha  occ. eigenvalues --   -0.59777  -0.57468  -0.53352  -0.50949  -0.48916
 Alpha  occ. eigenvalues --   -0.46723  -0.46339  -0.43962  -0.40664  -0.37856
 Alpha  occ. eigenvalues --   -0.36543  -0.35961  -0.34660  -0.34475  -0.33693
 Alpha  occ. eigenvalues --   -0.33621  -0.33256  -0.31351  -0.30787  -0.30166
 Alpha  occ. eigenvalues --   -0.29867  -0.29221  -0.28179  -0.27946  -0.27459
 Alpha  occ. eigenvalues --   -0.25650  -0.18499  -0.18120  -0.15967  -0.15493
 Alpha  occ. eigenvalues --   -0.14533  -0.13689  -0.12927  -0.07529  -0.05890
 Alpha virt. eigenvalues --    0.09216   0.10274   0.18179   0.19941   0.22652
 Alpha virt. eigenvalues --    0.23848   0.25020   0.26484   0.27041   0.27817
 Alpha virt. eigenvalues --    0.28252   0.28632   0.29682   0.32477   0.32982

 Mulliken charges:
               1
     1  S    0.754237
     2  N   -0.127476
     3  O   -0.519942
     4  F   -0.197203
     5  F   -0.209040
     6  F   -0.194367
     7  N   -0.591668
     8  C   -0.108237
     9  C   -0.145434
    10  C    0.375918
    11  H   -0.035977
    12  H   -0.032598
    13  C    0.054224
    14  H   -0.104754
    15  C    0.244808
    16  H   -0.001030
    17  H   -0.017873
    18  H   -0.013074
    19  C    0.466484
    20  C    0.028538
    21  H   -0.116559
    22  C    0.135339
    23  H   -0.096268
    24  O   -0.548046
 Sum of Mulliken charges =  -1.00000

 Dipole moment (field-independent basis, Debye):
    X=             -7.9015    Y=             -1.6768    Z=              3.9150  Tot=              8.9763
 Quadrupole moment (field-independent basis, Debye-Ang):
   XX=           -121.8765   YY=           -102.9338   ZZ=           -107.6030
   XY=             -0.2810   XZ=              6.9536   YZ=              0.8010

  Exact polarizability:     153.541      -1.484     118.841     -10.362      -2.986      74.456
 Approx polarizability:     202.569      -3.389     191.607     -17.185      -6.516     109.812

 Summary of Natural Population Analysis:

                                       Natural Population
                Natural  -----------------------------------------------
    Atom  No    Charge         Core      Valence    Rydberg      Total
 -----------------------------------------------------------------------
      S    1    2.21607      9.99803     3.53115    0.25476    13.78393
      N    2   -0.47980      1.99920     5.46378    0.01682     7.47980
      O    3   -0.97633      1.99976     6.96681    0.00975     8.97633
      F    4   -0.39241      1.99989     7.38663    0.00590     9.39241
      F    5   -0.39447      1.99989     7.38860    0.00598     9.39447
      F    6   -0.38471      1.99989     7.37886    0.00596     9.38471
      N    7   -1.03258      1.99941     6.01684    0.01634     8.03258
      C    8    0.27318      1.99905     3.70127    0.02651     5.72682
      C    9    0.25400      1.99906     3.72270    0.02424     5.74600
      C   10   -0.20976      1.99902     4.19036    0.02038     6.20976
      H   11    0.18709      0.00000     0.80708    0.00583     0.81291
      H   12    0.18764      0.00000     0.80610    0.00626     0.81236
      C   13   -0.24078      1.99899     4.22769    0.01409     6.24078
      H   14    0.17827      0.00000     0.81846    0.00327     0.82173
      C   15   -0.58781      1.99914     4.58013    0.00854     6.58781
      H   16    0.21734      0.00000     0.77864    0.00401     0.78266
      H   17    0.19285      0.00000     0.80455    0.00260     0.80715
      H   18    0.19454      0.00000     0.80291    0.00255     0.80546
      C   19    0.88652      1.99963     3.02358    0.09028     5.11348
      C   20   -0.26510      1.99898     4.25180    0.01432     6.26510
      H   21    0.17132      0.00000     0.82530    0.00338     0.82868
      C   22   -0.15295      1.99912     4.13950    0.01432     6.15295
      H   23    0.16910      0.00000     0.82790    0.00300     0.83090
      O   24   -1.01121      1.99977     7.00214    0.00930     9.01121
 =======================================================================
   * Total *   -1.00000     39.98883    89.44276    0.56840   130.00000

 ******   12 imaginary frequencies (negative Signs) ******

                      1                      2                      3
                      A                      A                      A
 Frequencies --  -1259.5061             -1244.2708             -1137.0412
 Red. masses --      1.0118                 1.0768                 1.0318
 Frc consts  --      0.9457                 0.9822                 0.7860
 IR Inten    --      1.8585                39.6682                 0.1605

                      4                      5                      6
                      A                      A                      A
 Frequencies --  -1010.0839              -950.2350              -832.3581
 Red. masses --      1.0283                 1.0506                 1.0919
 Frc consts  --      0.6181                 0.5589                 0.4457
 IR Inten    --      0.6129                 5.8910                 4.3874

                      7                      8                      9
                      A                      A                      A
 Frequencies --   -827.1629              -690.9011              -579.0604
 Red. masses --      1.0620                 1.1233                 1.1654
 Frc consts  --      0.4281                 0.3159                 0.2302
 IR Inten    --      9.2638                 0.5258                 9.2433

                     10                     11                     12
                      A                      A                      A
 Frequencies --   -513.7666              -339.8642              -123.0233
 Red. masses --      1.2520                 2.2938                 4.1462
 Frc consts  --      0.1947                 0.1561                 0.0370
 IR Inten    --      4.9389                 3.8232                 0.9117

                     13                     14                     15
                      A                      A                      A
 Frequencies --     45.8480                82.4074               102.8087
 Red. masses --     17.2458                10.5292                 9.0872
 Frc consts  --      0.0214                 0.0421                 0.0566
 IR Inten    --      0.6056                 0.0739                 0.6967

                     16                     17                     18
                      A                      A                      A
 Frequencies --    155.5304               176.2052               212.4882
 Red. masses --     10.6102                15.5984                 8.1818
 Frc consts  --      0.1512                 0.2853                 0.2177
 IR Inten    --      2.5881                 1.6773                 2.1926

                     19                     20                     21
                      A                      A                      A
 Frequencies --    288.1340               321.5126               338.3991
 Red. masses --     13.8754                15.0711                 9.5619
 Frc consts  --      0.6787                 0.9179                 0.6451
 IR Inten    --      0.2819                 0.4786                 3.4233

                     22                     23                     24
                      A                      A                      A
 Frequencies --    366.6480               393.1178               443.9296
 Red. masses --      7.6808                 3.6813                 6.4488
 Frc consts  --      0.6084                 0.3352                 0.7488
 IR Inten    --      0.2973                26.0641                 2.0309

                     25                     26                     27
                      A                      A                      A
 Frequencies --    481.9412               505.3993               539.7644
 Red. masses --      3.6182                14.3114                 3.7693
 Frc consts  --      0.4951                 2.1538                 0.6470
 IR Inten    --     11.4900                42.3001                11.1661

                     28                     29                     30
                      A                      A                      A
 Frequencies --    561.5738               569.3377               599.0706
 Red. masses --     14.9878                13.3299                 8.5178
 Frc consts  --      2.7849                 2.5458                 1.8011
 IR Inten    --     17.8866                14.1946               153.5491

                     31                     32                     33
                      A                      A                      A
 Frequencies --    604.7855               614.3296               700.4766
 Red. masses --      6.1282                 3.5844                 1.3012
 Frc consts  --      1.3207                 0.7970                 0.3762
 IR Inten    --     10.7320                17.7295                 7.0807

                     34                     35                     36
                      A                      A                      A
 Frequencies --    716.4327               727.2295               760.3363
 Red. masses --      4.0975                 2.7981                14.0159
 Frc consts  --      1.2391                 0.8719                 4.7740
 IR Inten    --      5.7890                25.1056                 8.2486

                     37                     38                     39
                      A                      A                      A
 Frequencies --    762.6270               807.5314               835.4592
 Red. masses --      3.8967                 6.2303                 5.4726
 Frc consts  --      1.3353                 2.3937                 2.2506
 IR Inten    --     16.8074                 7.2572                 3.7778

                     40                     41                     42
                      A                      A                      A
 Frequencies --    889.3280               906.6857              1022.8306
 Red. masses --      5.1244                 6.1373                 6.9985
 Frc consts  --      2.3879                 2.9726                 4.3138
 IR Inten    --      1.1519                95.9632                 5.3392

                     43                     44                     45
                      A                      A                      A
 Frequencies --   1034.6007              1063.8389              1088.0526
 Red. masses --      4.4595                 1.2280                 1.1696
 Frc consts  --      2.8124                 0.8189                 0.8158
 IR Inten    --     20.6695                44.7341                22.2123

                     46                     47                     48
                      A                      A                      A
 Frequencies --   1137.3628              1157.7750              1194.8359
 Red. masses --      1.0649                 5.5980                 9.8607
 Frc consts  --      0.8116                 4.4211                 8.2942
 IR Inten    --      8.3257               205.0735                80.7439

                     49                     50                     51
                      A                      A                      A
 Frequencies --   1231.1686              1257.7530              1289.7049
 Red. masses --     12.6339                12.5300                13.6164
 Frc consts  --     11.2829                11.6786                13.3443
 IR Inten    --    166.8680               262.1560               428.2622

                     52                     53                     54
                      A                      A                      A
 Frequencies --   1292.8650              1319.4227              1412.0896
 Red. masses --      9.1222                 8.6546                 7.9640
 Frc consts  --      8.9837                 8.8770                 9.3563
 IR Inten    --     67.0579                 7.3146                 2.5880

                     55                     56                     57
                      A                      A                      A
 Frequencies --   1452.5531              1459.9593              1626.6083
 Red. masses --      9.3300                20.0970                10.5718
 Frc consts  --     11.5983                25.2385                16.4804
 IR Inten    --     46.2119               309.0039               117.6884

                     58                     59                     60
                      A                      A                      A
 Frequencies --   1651.1820              4172.5491              4238.2207
 Red. masses --     10.7911                 1.0580                 1.0327
 Frc consts  --     17.3342                10.8525                10.9291
 IR Inten    --     37.5142                41.4358                 9.1260

                     61                     62                     63
                      A                      A                      A
 Frequencies --   4283.4265              4424.1858              4438.5946
 Red. masses --      1.1091                 1.1060                 1.1069
 Frc consts  --     11.9900                12.7549                12.8488
 IR Inten    --      6.7069                 3.2029                 0.0835

                     64                     65                     66
                      A                      A                      A
 Frequencies --   4754.0637              4760.1578              4773.1400
 Red. masses --      1.0873                 1.0893                 1.0922
 Frc consts  --     14.4791                14.5420                14.6613
 IR Inten    --      1.4600                 3.7195                 6.5392

 - Thermochemistry -
 -------------------
 Temperature   298.150 Kelvin.  Pressure   1.00000 Atm.
 Atom     1 has atomic number 16 and mass  31.97207

 Molecular mass:   253.02586 amu.
 Principal axes and moments of inertia in atomic units:
                           1         2         3
     Eigenvalues --  1813.180717641.973987958.90858
           X            0.99992  -0.01016  -0.00785
           Y            0.01003   0.99983  -0.01555
           Z            0.00801   0.01547   0.99985
 This molecule is an asymmetric top.
 Rotational symmetry number  1.
 Warning -- assumption of classical behavior for rotation
           may cause significant error
 Rotational temperatures (Kelvin)      0.04777     0.01133     0.01088
 Rotational constants (GHZ):           0.99535     0.23616     0.22676
   12 imaginary frequencies ignored.
 Zero-point vibrational energy     430932.4 (Joules/Mol)
                                  102.99533 (Kcal/Mol)
 Warning -- explicit consideration of  20 degrees of freedom as
           vibrations may cause significant error
 Vibrational temperatures:     65.97   118.57   147.92   223.77   253.52
          (Kelvin)            305.72   414.56   462.58   486.88   527.52
                              565.61   638.72   693.41   727.16   776.60
                              807.98   819.15   861.93   870.15   883.88
                             1007.83  1030.79  1046.32  1093.95  1097.25
                             1161.86  1202.04  1279.54  1304.52  1471.63
                             1488.56  1530.63  1565.46  1636.41  1665.78
                             1719.10  1771.38  1809.63  1855.60  1860.14
                             1898.35  2031.68  2089.90  2100.56  2340.33
                             2375.68  6003.37  6097.85  6162.90  6365.42
                             6386.15  6840.04  6848.81  6867.48

 Zero-point correction=                           0.164133 (Hartree/Particle)
 Thermal correction to Energy=                    0.175719
 Thermal correction to Enthalpy=                  0.176663
 Thermal correction to Gibbs Free Energy=         0.125062
 Sum of electronic and zero-point Energies=          -1265.221251
 Sum of electronic and thermal Energies=             -1265.209666
 Sum of electronic and thermal Enthalpies=           -1265.208722
 Sum of electronic and thermal Free Energies=        -1265.260323

                     E (Thermal)             CV                S
                      KCal/Mol        Cal/Mol-Kelvin    Cal/Mol-Kelvin
 Total                  110.265             44.955            108.603
 Electronic               0.000              0.000              0.000
 Translational            0.889              2.981             42.485
 Rotational               0.889              2.981             33.067
 Vibrational            108.488             38.994             33.051
 Vibration     1          0.595              1.979              4.989
 Vibration     2          0.600              1.961              3.833
 Vibration     3          0.605              1.947              3.400
 Vibration     4          0.620              1.896              2.603
 Vibration     5          0.628              1.872              2.368
 Vibration     6          0.644              1.822              2.022
 Vibration     7          0.685              1.696              1.485
 Vibration     8          0.707              1.632              1.302
 Vibration     9          0.719              1.599              1.220
 Vibration    10          0.740              1.541              1.094
 Vibration    11          0.760              1.485              0.988
 Vibration    12          0.803              1.374              0.814
 Vibration    13          0.838              1.290              0.705
 Vibration    14          0.861              1.238              0.645
 Vibration    15          0.895              1.162              0.566
 Vibration    16          0.917              1.114              0.521
 Vibration    17          0.925              1.098              0.506
 Vibration    18          0.957              1.034              0.451
 Vibration    19          0.963              1.022              0.441
 Vibration    20          0.974              1.002              0.426

 Normal termination of Gaussian 16 at Mon Mar  6 10:38:18 2023.
