 Gaussian 16, Revision C.01,
 Gaussian 16:  ES64L-G16RevC.01  3-Jul-2019

 ----------------------------------------------------------------------
 #p pop=(regular,nbo,savenbos) freq=noraman def2svp empiricaldispersion
 =gd3bj output=wfx pbe1pbe
 ----------------------------------------------------------------------

 ----------------------------------------
 HUWNET_Complex_0_Ligand_0_NN_Cu_oriented
 ----------------------------------------
 Symbolic Z-matrix:
 Charge =  0 Multiplicity = 1

                         Standard orientation:
 ---------------------------------------------------------------------
 Center     Atomic      Atomic             Coordinates (Angstroms)
 Number     Number       Type             X           Y           Z
 ---------------------------------------------------------------------
      1          7           0        1.399493   -1.232208    0.790980
      2          8           0        3.193128   -1.588873   -0.493503
      3          6           0        0.073638   -2.952071   -0.396938
      4          1           0        0.090060   -3.878143   -0.685866
      5          6           0        1.307533   -2.672994    0.436500
      6          1           0        1.275709   -3.209819    1.255968
      7          6           0        2.641799   -2.919669   -0.286802
      8          1           0        3.236184   -3.459306    0.258672
      9          1           0        2.498607   -3.370196   -1.134165
     10          6           0        2.403925   -0.737553    0.200887
     11          8           0       -3.103567   -1.666280   -0.608065
     12          7           0       -1.333789   -1.252968    0.694412
     13          6           0       -1.206741   -2.694064    0.350115
     14          1           0       -1.202289   -3.218311    1.178123
     15          6           0       -2.517091   -2.964800   -0.399852
     16          1           0       -2.343541   -3.403556   -1.247088
     17          1           0       -3.105488   -3.526557    0.128299
     18          6           0       -2.356246   -0.797831    0.092924
     19          6           0       -2.839803    0.583149    0.048420
     20          6           0       -4.140761    0.900258    0.354221
     21          1           0       -4.737650    0.227985    0.593712
     22          6           0       -1.975804    1.609498   -0.318757
     23          1           0       -1.088273    1.420695   -0.522729
     24          6           0        2.813940    0.671390    0.128448
     25          6           0        1.865028    1.646516    0.002045
     26          1           0        0.963925    1.418370    0.026565
     27          6           0        2.236662    2.974485   -0.161669
     28          1           0        1.590177    3.629999   -0.295181
     29          6           0        3.554647    3.307498   -0.125543
     30          1           0        3.802017    4.198849   -0.226720
     31          6           0        4.508454    2.376155    0.051778
     32          1           0        5.402658    2.626982    0.102096
     33          6           0        4.146691    1.020761    0.161734
     34          1           0        4.800873    0.366284    0.255925
     35          6           0       -4.567166    2.216612    0.307152
     36          1           0       -5.447473    2.425640    0.520441
     37          6           0       -3.710965    3.196828   -0.045420
     38          1           0       -3.997797    4.082499   -0.059564
     39          6           0       -2.430106    2.891111   -0.380443
     40          1           0       -1.855016    3.567973   -0.656287
     41          1           0        0.095076   -2.393615   -1.190199
 ---------------------------------------------------------------------

 SCF Done:  E(RPBE1PBE) =  -992.616755923     A.U. after   14 cycles

 The electronic state is 1-A.
 Alpha  occ. eigenvalues --  -19.23950 -19.23709 -14.35359 -14.35226 -10.30740
 Alpha  occ. eigenvalues --  -10.30633 -10.26350 -10.26301 -10.25246 -10.25070
 Alpha  occ. eigenvalues --  -10.24133 -10.23886 -10.22189 -10.22047 -10.21840
 Alpha  occ. eigenvalues --  -10.21684 -10.21638 -10.21558 -10.21536 -10.21361
 Alpha  occ. eigenvalues --  -10.21297 -10.21219 -10.21118  -1.10989  -1.10151
 Alpha  occ. eigenvalues --   -0.91887  -0.90478  -0.89483  -0.89036  -0.83874
 Alpha  occ. eigenvalues --   -0.81641  -0.78828  -0.78385  -0.77805  -0.77098
 Alpha  occ. eigenvalues --   -0.73860  -0.66289  -0.66085  -0.65619  -0.65290
 Alpha  occ. eigenvalues --   -0.64244  -0.62979  -0.60048  -0.59538  -0.56196
 Alpha  occ. eigenvalues --   -0.55223  -0.53548  -0.53205  -0.51989  -0.51035
 Alpha  occ. eigenvalues --   -0.49659  -0.49514  -0.48762  -0.48020  -0.47423
 Alpha  occ. eigenvalues --   -0.46018  -0.45930  -0.45310  -0.44989  -0.42996
 Alpha  occ. eigenvalues --   -0.41699  -0.41364  -0.40659  -0.40261  -0.39771
 Alpha  occ. eigenvalues --   -0.38323  -0.37910  -0.37469  -0.36946  -0.36834
 Alpha  occ. eigenvalues --   -0.36427  -0.36326  -0.34776  -0.28547  -0.28096
 Alpha  occ. eigenvalues --   -0.27776  -0.27018  -0.26481  -0.25268  -0.25167
 Alpha  occ. eigenvalues --   -0.23543
 Alpha virt. eigenvalues --   -0.01881  -0.01546  -0.00526  -0.00081   0.05571
 Alpha virt. eigenvalues --    0.07108   0.08368   0.08481   0.09448   0.10729
 Alpha virt. eigenvalues --    0.11039   0.11163   0.12327   0.12440   0.14288

 Mulliken charges:
               1
     1  N   -0.208989
     2  O   -0.375209
     3  C    0.286469
     4  H   -0.022953
     5  C   -0.119324
     6  H   -0.024946
     7  C    0.466807
     8  H   -0.017881
     9  H   -0.037032
    10  C    0.152109
    11  O   -0.360755
    12  N   -0.216198
    13  C   -0.119406
    14  H   -0.025037
    15  C    0.471293
    16  H   -0.039122
    17  H   -0.020763
    18  C    0.140978
    19  C    0.001409
    20  C    0.119881
    21  H   -0.110211
    22  C    0.160981
    23  H   -0.141098
    24  C    0.012788
    25  C    0.144288
    26  H   -0.141277
    27  C    0.114470
    28  H   -0.100895
    29  C    0.108632
    30  H   -0.093631
    31  C    0.105300
    32  H   -0.094714
    33  C    0.107951
    34  H   -0.107063
    35  C    0.105502
    36  H   -0.095249
    37  C    0.110796
    38  H   -0.094886
    39  C    0.108551
    40  H   -0.100029
    41  H   -0.051537
 Sum of Mulliken charges =  -0.00000

 Dipole moment (field-independent basis, Debye):
    X=             -0.1348    Y=             -1.8661    Z=             -1.0701  Tot=              2.1554
 Quadrupole moment (field-independent basis, Debye-Ang):
   XX=           -122.4824   YY=           -101.8122   ZZ=           -137.7868
   XY=             -0.5307   XZ=             -1.3650   YZ=             -1.0716

  Exact polarizability:     225.658      -0.625     244.117      -5.792      -5.952     106.959
 Approx polarizability:     328.920      -1.125     344.368     -11.615     -17.302     177.170

 Summary of Natural Population Analysis:

                                       Natural Population
                Natural  -----------------------------------------------
    Atom  No    Charge         Core      Valence    Rydberg      Total
 -----------------------------------------------------------------------
      N    1   -0.52809      1.99928     5.51243    0.01638     7.52809
      O    2   -0.57552      1.99969     6.56574    0.01009     8.57552
      C    3   -0.39330      1.99897     4.37674    0.01759     6.39330
      H    4    0.19343      0.00000     0.80265    0.00392     0.80657
      C    5   -0.02386      1.99903     4.00429    0.02054     6.02386
      H    6    0.18551      0.00000     0.81044    0.00406     0.81449
      C    7    0.00546      1.99885     3.97899    0.01670     5.99454
      H    8    0.16568      0.00000     0.83120    0.00312     0.83432
      H    9    0.16553      0.00000     0.83146    0.00301     0.83447
      C   10    0.59363      1.99899     3.36386    0.04352     5.40637
      O   11   -0.56731      1.99967     6.55709    0.01054     8.56731
      N   12   -0.52761      1.99929     5.51185    0.01647     7.52761
      C   13   -0.02624      1.99903     4.00686    0.02036     6.02624
      H   14    0.18526      0.00000     0.81052    0.00422     0.81474
      C   15    0.00410      1.99886     3.97993    0.01710     5.99590
      H   16    0.16566      0.00000     0.83129    0.00305     0.83434
      H   17    0.16590      0.00000     0.83099    0.00311     0.83410
      C   18    0.58955      1.99899     3.36730    0.04416     5.41045
      C   19   -0.09686      1.99894     4.08076    0.01716     6.09686
      C   20   -0.13905      1.99901     4.12503    0.01501     6.13905
      H   21    0.17705      0.00000     0.81950    0.00345     0.82295
      C   22   -0.12975      1.99901     4.11620    0.01454     6.12975
      H   23    0.17355      0.00000     0.82210    0.00436     0.82645
      C   24   -0.11061      1.99891     4.09490    0.01680     6.11061
      C   25   -0.12399      1.99899     4.11068    0.01433     6.12399
      H   26    0.17697      0.00000     0.81806    0.00497     0.82303
      C   27   -0.15877      1.99910     4.14555    0.01412     6.15877
      H   28    0.16986      0.00000     0.82710    0.00304     0.83014
      C   29   -0.16768      1.99908     4.15463    0.01397     6.16768
      H   30    0.17061      0.00000     0.82607    0.00331     0.82939
      C   31   -0.16068      1.99909     4.14749    0.01410     6.16068
      H   32    0.17074      0.00000     0.82622    0.00304     0.82926
      C   33   -0.13050      1.99903     4.11644    0.01504     6.13050
      H   34    0.17764      0.00000     0.81890    0.00346     0.82236
      C   35   -0.15970      1.99909     4.14647    0.01413     6.15970
      H   36    0.17094      0.00000     0.82594    0.00311     0.82906
      C   37   -0.16263      1.99909     4.14942    0.01412     6.16263
      H   38    0.17130      0.00000     0.82549    0.00321     0.82870
      C   39   -0.16348      1.99908     4.15022    0.01418     6.16348
      H   40    0.17061      0.00000     0.82621    0.00318     0.82939
      H   41    0.19665      0.00000     0.79925    0.00410     0.80335
 =======================================================================
   * Total *    0.00000     45.97906   115.54626    0.47468   162.00000

 ******   32 imaginary frequencies (negative Signs) ******

                      1                      2                      3
                      A                      A                      A
 Frequencies --  -1458.0372             -1454.1818             -1361.3522
 Red. masses --      1.0801                 1.0880                 1.0489
 Frc consts  --      1.3529                 1.3555                 1.1453
 IR Inten    --      4.3180               138.4307                 0.1810

                      4                      5                      6
                      A                      A                      A
 Frequencies --  -1357.7393             -1293.2813             -1285.3365
 Red. masses --      1.0412                 1.0319                 1.0360
 Frc consts  --      1.1309                 1.0169                 1.0084
 IR Inten    --      0.7361                 0.2598                 1.5984

                      7                      8                      9
                      A                      A                      A
 Frequencies --  -1238.6042             -1229.8891             -1154.3073
 Red. masses --      1.0191                 1.0184                 1.0337
 Frc consts  --      0.9212                 0.9076                 0.8115
 IR Inten    --      0.0556                 0.3158                 0.1284

                     10                     11                     12
                      A                      A                      A
 Frequencies --  -1148.1861             -1088.5535             -1037.8279
 Red. masses --      1.0342                 1.0288                 1.0431
 Frc consts  --      0.8033                 0.7183                 0.6619
 IR Inten    --      0.3681                 3.1515                 2.3717

                     13                     14                     15
                      A                      A                      A
 Frequencies --  -1029.4949              -918.4698              -906.8211
 Red. masses --      1.0423                 1.0572                 1.1020
 Frc consts  --      0.6509                 0.5254                 0.5339
 IR Inten    --      1.4074                 4.3651                 0.6297

                     16                     17                     18
                      A                      A                      A
 Frequencies --   -902.2629              -881.1735              -829.1010
 Red. masses --      1.1077                 1.1501                 1.1099
 Frc consts  --      0.5313                 0.5261                 0.4495
 IR Inten    --      0.6066                 0.1761                 7.5651

                     19                     20                     21
                      A                      A                      A
 Frequencies --   -822.4733              -724.4597              -716.3550
 Red. masses --      1.1173                 1.1026                 1.1340
 Frc consts  --      0.4453                 0.3410                 0.3429
 IR Inten    --      3.7347                 2.5966                12.9283

                     22                     23                     24
                      A                      A                      A
 Frequencies --   -705.5372              -681.7121              -532.8395
 Red. masses --      1.0367                 1.0394                 1.4469
 Frc consts  --      0.3040                 0.2846                 0.2420
 IR Inten    --     17.9646                21.1161                 0.1894

                     25                     26                     27
                      A                      A                      A
 Frequencies --   -499.3316              -487.2928              -389.0859
 Red. masses --      1.5810                 1.3854                 1.6007
 Frc consts  --      0.2322                 0.1938                 0.1428
 IR Inten    --      1.6412                 7.6786                 2.0752

                     28                     29                     30
                      A                      A                      A
 Frequencies --   -365.0069              -308.1405              -303.1770
 Red. masses --      2.0411                 1.8200                 1.6652
 Frc consts  --      0.1602                 0.1018                 0.0902
 IR Inten    --      6.1546                 5.1054                 3.2009

                     31                     32                     33
                      A                      A                      A
 Frequencies --   -150.4874               -86.6451                95.6670
 Red. masses --      1.8895                 4.2278                 2.5768
 Frc consts  --      0.0252                 0.0187                 0.0139
 IR Inten    --     13.8655                 0.1767                 6.5624

                     34                     35                     36
                      A                      A                      A
 Frequencies --    130.1402               145.7114               156.5118
 Red. masses --      4.2413                 8.2941                 8.7206
 Frc consts  --      0.0423                 0.1038                 0.1259
 IR Inten    --      4.3429                 0.0400                 0.0135

                     37                     38                     39
                      A                      A                      A
 Frequencies --    253.7047               269.3496               293.5778
 Red. masses --      2.0959                 5.3741                 6.2114
 Frc consts  --      0.0795                 0.2297                 0.3154
 IR Inten    --      4.7886                 5.1294                 0.2479

                     40                     41                     42
                      A                      A                      A
 Frequencies --    331.8409               378.5019               383.3488
 Red. masses --      8.1459                 3.9590                 5.0954
 Frc consts  --      0.5285                 0.3342                 0.4412
 IR Inten    --      0.5466                 0.3229                 1.3243

                     43                     44                     45
                      A                      A                      A
 Frequencies --    459.6930               485.0190               511.9582
 Red. masses --      3.2873                 4.2665                 5.7135
 Frc consts  --      0.4093                 0.5913                 0.8823
 IR Inten    --     12.1184                 0.3753                 1.1286

                     46                     47                     48
                      A                      A                      A
 Frequencies --    524.2301               542.5096               550.8464
 Red. masses --     10.6362                 6.2860                 7.3624
 Frc consts  --      1.7222                 1.0900                 1.3162
 IR Inten    --      0.1055                 0.3624                 0.0349

                     49                     50                     51
                      A                      A                      A
 Frequencies --    605.4939               614.7914               646.2312
 Red. masses --      2.8231                 3.7229                 3.4195
 Frc consts  --      0.6098                 0.8291                 0.8414
 IR Inten    --      9.3093                 2.9910                 6.9329

                     52                     53                     54
                      A                      A                      A
 Frequencies --    653.6481               683.2716               696.6431
 Red. masses --      3.3741                 2.3347                 3.5595
 Frc consts  --      0.8494                 0.6422                 1.0178
 IR Inten    --      5.5996                 1.2399                 3.4658

                     55                     56                     57
                      A                      A                      A
 Frequencies --    703.4140               739.5541               750.7314
 Red. masses --      4.0261                 5.7628                 4.1523
 Frc consts  --      1.1737                 1.8571                 1.3788
 IR Inten    --     10.9211                 3.0426                 0.4751

                     58                     59                     60
                      A                      A                      A
 Frequencies --    754.9664               774.9602               784.0511
 Red. masses --      4.0963                 4.2833                 4.5607
 Frc consts  --      1.3756                 1.5156                 1.6519
 IR Inten    --      0.1902                11.8113                11.4370

                     61                     62                     63
                      A                      A                      A
 Frequencies --    800.2256               807.3814               821.3417
 Red. masses --      4.4858                 3.0303                 9.3409
 Frc consts  --      1.6924                 1.1638                 3.7127
 IR Inten    --      1.1313                 2.4559                 0.3049

                     64                     65                     66
                      A                      A                      A
 Frequencies --    823.9013               831.9301               841.0914
 Red. masses --      4.9852                 3.1783                 5.1895
 Frc consts  --      1.9938                 1.2960                 2.1630
 IR Inten    --      4.7989                 0.6895                13.2209

                     67                     68                     69
                      A                      A                      A
 Frequencies --    883.0453               922.9502               956.7648
 Red. masses --      4.9224                 2.3739                 1.3312
 Frc consts  --      2.2615                 1.1915                 0.7180
 IR Inten    --      0.5211                 7.7710                10.7646

                     70                     71                     72
                      A                      A                      A
 Frequencies --    963.3634               982.0371               985.4939
 Red. masses --      5.2160                 3.4757                 4.7045
 Frc consts  --      2.8521                 1.9749                 2.6920
 IR Inten    --     19.0152                29.1457                17.2950

                     73                     74                     75
                      A                      A                      A
 Frequencies --   1006.5177              1032.5421              1040.0087
 Red. masses --      2.1886                 2.7299                 3.1742
 Frc consts  --      1.3063                 1.7148                 2.0228
 IR Inten    --     10.9266                 9.8600                 6.2295

                     76                     77                     78
                      A                      A                      A
 Frequencies --   1054.3526              1070.1303              1072.8315
 Red. masses --      5.1954                 5.3944                 5.4414
 Frc consts  --      3.4028                 3.6397                 3.6900
 IR Inten    --      4.0454                11.6316                 3.7194

                     79                     80                     81
                      A                      A                      A
 Frequencies --   1082.2612              1097.8491              1149.2055
 Red. masses --      2.0867                 2.2427                 5.2252
 Frc consts  --      1.4400                 1.5926                 4.0658
 IR Inten    --      1.5590                 3.8249                30.3378

                     82                     83                     84
                      A                      A                      A
 Frequencies --   1170.9315              1195.4449              1212.7174
 Red. masses --      4.9157                 5.5564                 5.9630
 Frc consts  --      3.9710                 4.6785                 5.1670
 IR Inten    --     43.2382                33.1096                51.7370

                     85                     86                     87
                      A                      A                      A
 Frequencies --   1264.2461              1316.2053              1358.8339
 Red. masses --      8.4556                 8.6190                 8.9250
 Frc consts  --      7.9627                 8.7974                 9.7094
 IR Inten    --      2.6513                46.0572                65.7284

                     88                     89                     90
                      A                      A                      A
 Frequencies --   1360.2991              1422.6533              1500.6554
 Red. masses --      8.9041                 8.2518                 9.3955
 Frc consts  --      9.7076                 9.8401                12.4661
 IR Inten    --    136.0366                 6.6600                22.6887

                     91                     92                     93
                      A                      A                      A
 Frequencies --   1512.6920              1528.4744              1562.9750
 Red. masses --      9.1126                 9.9958                 9.0175
 Frc consts  --     12.2855                13.7589                12.9789
 IR Inten    --     10.7144                46.3103                 7.1978

                     94                     95                     96
                      A                      A                      A
 Frequencies --   1666.2471              1729.4017              1757.9403
 Red. masses --     10.7870                10.5297                10.2743
 Frc consts  --     17.6452                18.5548                18.7073
 IR Inten    --      6.3572                19.5192                21.8489

                     97                     98                     99
                      A                      A                      A
 Frequencies --   1785.4905              1792.9897              1807.4547
 Red. masses --     10.5137                11.6873                11.9210
 Frc consts  --     19.7480                22.1370                22.9455
 IR Inten    --     42.9051               190.0794               137.1044

                    100                    101                    102
                      A                      A                      A
 Frequencies --   4360.8494              4363.1887              4417.8265
 Red. masses --      1.0880                 1.0881                 1.0605
 Frc consts  --     12.1903                12.2042                12.1944
 IR Inten    --      9.2808                12.7365                 7.4616

                    103                    104                    105
                      A                      A                      A
 Frequencies --   4425.6710              4430.9088              4539.1445
 Red. masses --      1.0589                 1.0591                 1.1078
 Frc consts  --     12.2195                12.2507                13.4480
 IR Inten    --     17.0578                18.3093                 6.0928

                    106                    107                    108
                      A                      A                      A
 Frequencies --   4552.1256              4556.6051              5012.5516
 Red. masses --      1.1124                 1.1122                 1.0874
 Frc consts  --     13.5818                13.6056                16.0979
 IR Inten    --      4.7512                 4.9029                 0.1798

                    109                    110                    111
                      A                      A                      A
 Frequencies --   5015.8239              5027.3924              5029.7473
 Red. masses --      1.0869                 1.0886                 1.0887
 Frc consts  --     16.1110                16.2106                16.2279
 IR Inten    --      0.5694                 2.3088                 0.2115

                    112                    113                    114
                      A                      A                      A
 Frequencies --   5030.1478              5034.3791              5038.0731
 Red. masses --      1.0891                 1.0899                 1.0916
 Frc consts  --     16.2356                16.2755                16.3247
 IR Inten    --      0.6947                 0.0197                 1.4084

                    115                    116                    117
                      A                      A                      A
 Frequencies --   5041.7366              5043.2030              5043.6752
 Red. masses --      1.0902                 1.0920                 1.0923
 Frc consts  --     16.3276                16.3645                16.3714
 IR Inten    --      0.9324                 0.5435                 1.2405

 - Thermochemistry -
 -------------------
 Temperature   298.150 Kelvin.  Pressure   1.00000 Atm.
 Atom     1 has atomic number  7 and mass  14.00307

 Molecular mass:   306.13683 amu.
 Principal axes and moments of inertia in atomic units:
                           1         2         3
     Eigenvalues --  5455.235529168.77480**********
           X            1.00000  -0.00116  -0.00105
           Y            0.00116   1.00000   0.00061
           Z            0.00105  -0.00061   1.00000
 This molecule is an asymmetric top.
 Rotational symmetry number  1.
 Warning -- assumption of classical behavior for rotation
           may cause significant error
 Rotational temperatures (Kelvin)      0.01588     0.00945     0.00607
 Rotational constants (GHZ):           0.33083     0.19684     0.12653
   32 imaginary frequencies ignored.
 Zero-point vibrational energy     879580.0 (Joules/Mol)
                                  210.22467 (Kcal/Mol)
 Warning -- explicit consideration of  18 degrees of freedom as
           vibrations may cause significant error
 Vibrational temperatures:    137.64   187.24   209.65   225.19   365.02
          (Kelvin)            387.53   422.39   477.45   544.58   551.55
                              661.40   697.83   736.59   754.25   780.55
                              792.55   871.17   884.55   929.78   940.45
                              983.08  1002.31  1012.06  1064.05  1080.14
                             1086.23  1114.99  1128.07  1151.35  1161.64
                             1181.73  1185.41  1196.96  1210.14  1270.51
                             1327.92  1376.57  1386.07  1412.93  1417.91
                             1448.15  1485.60  1496.34  1516.98  1539.68
                             1543.57  1557.13  1579.56  1653.45  1684.71
                             1719.98  1744.83  1818.97  1893.73  1955.06
                             1957.17  2046.88  2159.11  2176.43  2199.13
                             2248.77  2397.36  2488.22  2529.28  2568.92
                             2579.71  2600.52  6274.29  6277.66  6356.27
                             6367.55  6375.09  6530.82  6549.49  6555.94
                             7211.94  7216.65  7233.30  7236.68  7237.26
                             7243.35  7248.66  7253.93  7256.04  7256.72

 Zero-point correction=                           0.335014 (Hartree/Particle)
 Thermal correction to Energy=                    0.346725
 Thermal correction to Enthalpy=                  0.347669
 Thermal correction to Gibbs Free Energy=         0.296253
 Sum of electronic and zero-point Energies=           -992.281742
 Sum of electronic and thermal Energies=              -992.270031
 Sum of electronic and thermal Enthalpies=            -992.269087
 Sum of electronic and thermal Free Energies=         -992.320503

                     E (Thermal)             CV                S
                      KCal/Mol        Cal/Mol-Kelvin    Cal/Mol-Kelvin
 Total                  217.573             51.630            108.213
 Electronic               0.000              0.000              0.000
 Translational            0.889              2.981             43.053
 Rotational               0.889              2.981             34.922
 Vibrational            215.796             45.668             30.239
 Vibration     1          0.603              1.952              3.541
 Vibration     2          0.612              1.923              2.944
 Vibration     3          0.617              1.907              2.727
 Vibration     4          0.620              1.895              2.592
 Vibration     5          0.665              1.757              1.705
 Vibration     6          0.674              1.730              1.600
 Vibration     7          0.688              1.686              1.453
 Vibration     8          0.714              1.612              1.251
 Vibration     9          0.749              1.516              1.045
 Vibration    10          0.753              1.506              1.026
 Vibration    11          0.818              1.339              0.767
 Vibration    12          0.841              1.283              0.697
 Vibration    13          0.867              1.223              0.629
 Vibration    14          0.879              1.196              0.600
 Vibration    15          0.898              1.156              0.560
 Vibration    16          0.906              1.138              0.542
 Vibration    17          0.964              1.020              0.440
 Vibration    18          0.974              1.001              0.425

 Normal termination of Gaussian 16 at Sat Mar  4 13:05:20 2023.
