 Gaussian 16, Revision C.01,
 Gaussian 16:  ES64L-G16RevC.01  3-Jul-2019

 ----------------------------------------------------------------------
 #p pop=(regular,nbo,savenbos) freq=noraman def2svp empiricaldispersion
 =gd3bj output=wfx pbe1pbe
 ----------------------------------------------------------------------

 ----------------------------------------
 IDAPOS_Complex_0_Ligand_0_NN_Cu_oriented
 ----------------------------------------
 Symbolic Z-matrix:
 Charge =  0 Multiplicity = 1

                         Standard orientation:
 ---------------------------------------------------------------------
 Center     Atomic      Atomic             Coordinates (Angstroms)
 Number     Number       Type             X           Y           Z
 ---------------------------------------------------------------------
      1          6           0        0.541104    1.251732    1.673778
      2          1           0       -0.167448    0.600856    1.901698
      3          1           0        0.852018    1.671897    2.514597
      4          6           0       -0.037322    2.321710    0.765902
      5          1           0       -0.805500    2.738539    1.229934
      6          1           0        0.648396    3.025906    0.640414
      7          6           0       -0.510323    1.861519   -0.624426
      8          1           0        0.259300    1.427059   -1.092560
      9          6           0       -0.932501    3.086257   -1.424678
     10          1           0       -1.639970    3.561503   -0.943265
     11          1           0       -0.161804    3.679525   -1.543335
     12          1           0       -1.264690    2.803910   -2.301541
     13          7           0        1.609218   -0.622263    0.364637
     14          6           0        1.687954    0.528002    1.030348
     15          7           0        2.952023    0.995133    1.022973
     16          1           0        3.242151    1.658856    1.413229
     17          6           0        3.759117    0.107593    0.357452
     18          6           0        2.912088   -0.931881   -0.036510
     19          6           0        3.416622   -2.041174   -0.712846
     20          1           0        2.857047   -2.765210   -0.967565
     21          6           0        4.774642   -2.038193   -0.995999
     22          1           0        5.152328   -2.781313   -1.450513
     23          6           0        5.599910   -0.977426   -0.634622
     24          1           0        6.520383   -1.006862   -0.870838
     25          6           0        5.119658    0.111611    0.054612
     26          1           0        5.685585    0.830876    0.310462
     27          7           0       -2.927930    1.165928   -0.619466
     28          1           0       -3.232939    1.852208   -0.794937
     29          6           0       -1.613631    0.854531   -0.493118
     30          7           0       -1.462882   -0.424912   -0.143184
     31          6           0       -2.754594   -0.944658    0.018325
     32          6           0       -3.682937    0.050860   -0.303389
     33          6           0       -5.050415   -0.180003   -0.304574
     34          1           0       -5.673351    0.487094   -0.568078
     35          6           0       -5.453450   -1.434926    0.102270
     36          1           0       -6.379264   -1.640971    0.111926
     37          6           0       -4.540697   -2.405489    0.496245
     38          1           0       -4.865960   -3.242241    0.804848
     39          6           0       -3.178422   -2.192096    0.451804
     40          1           0       -2.560098   -2.866649    0.707356
 ---------------------------------------------------------------------

 SCF Done:  E(RPBE1PBE) =  -913.778060368     A.U. after   15 cycles

 The electronic state is 1-A.
 Alpha  occ. eigenvalues --  -14.42549 -14.42243 -14.35447 -14.35097 -10.29275
 Alpha  occ. eigenvalues --  -10.29009 -10.25949 -10.25721 -10.24158 -10.24001
 Alpha  occ. eigenvalues --  -10.23749 -10.22464 -10.22177 -10.22074 -10.21950
 Alpha  occ. eigenvalues --  -10.21109 -10.21000 -10.20953 -10.20948 -10.20715
 Alpha  occ. eigenvalues --  -10.20682 -10.20630  -1.04879  -1.04723  -0.90529
 Alpha  occ. eigenvalues --   -0.89746  -0.87499  -0.86362  -0.85119  -0.80475
 Alpha  occ. eigenvalues --   -0.76937  -0.76500  -0.75251  -0.74722  -0.70014
 Alpha  occ. eigenvalues --   -0.67577  -0.66933  -0.66661  -0.62979  -0.62364
 Alpha  occ. eigenvalues --   -0.61716  -0.60955  -0.57737  -0.57030  -0.52976
 Alpha  occ. eigenvalues --   -0.52493  -0.52109  -0.49292  -0.48594  -0.47838
 Alpha  occ. eigenvalues --   -0.46818  -0.46469  -0.45931  -0.45868  -0.45715
 Alpha  occ. eigenvalues --   -0.45376  -0.44905  -0.43963  -0.41156  -0.40332
 Alpha  occ. eigenvalues --   -0.38619  -0.38011  -0.37941  -0.37527  -0.37163
 Alpha  occ. eigenvalues --   -0.36935  -0.36519  -0.35146  -0.34778  -0.30833
 Alpha  occ. eigenvalues --   -0.30710  -0.27239  -0.24495  -0.24015  -0.23733
 Alpha  occ. eigenvalues --   -0.22793  -0.22621
 Alpha virt. eigenvalues --   -0.00965  -0.00791   0.02930   0.03115   0.05651
 Alpha virt. eigenvalues --    0.06184   0.07293   0.08021   0.10650   0.10852
 Alpha virt. eigenvalues --    0.11464   0.12576   0.13574   0.13736   0.14705

 Mulliken charges:
               1
     1  C    0.321258
     2  H    0.001118
     3  H   -0.024126
     4  C    0.028973
     5  H   -0.016152
     6  H   -0.018254
     7  C   -0.063072
     8  H    0.022605
     9  C    0.172606
    10  H   -0.015811
    11  H   -0.010556
    12  H    0.001493
    13  N   -0.186561
    14  C   -0.089344
    15  N    0.038983
    16  H   -0.006645
    17  C    0.069775
    18  C    0.056753
    19  C    0.034723
    20  H   -0.095135
    21  C    0.077486
    22  H   -0.077215
    23  C    0.084815
    24  H   -0.077181
    25  C    0.022803
    26  H   -0.109027
    27  N    0.075435
    28  H   -0.061669
    29  C    0.027679
    30  N   -0.195504
    31  C    0.062520
    32  C    0.083661
    33  C    0.022030
    34  H   -0.108073
    35  C    0.086294
    36  H   -0.078543
    37  C    0.081521
    38  H   -0.077361
    39  C    0.031467
    40  H   -0.093768
 Sum of Mulliken charges =  -0.00000

 Dipole moment (field-independent basis, Debye):
    X=             -0.2452    Y=              5.6793    Z=              0.7238  Tot=              5.7304
 Quadrupole moment (field-independent basis, Debye-Ang):
   XX=           -112.6389   YY=           -113.5196   ZZ=           -125.4756
   XY=              0.8910   XZ=              4.0968   YZ=              2.0058

  Exact polarizability:     264.597       7.227     201.570     -17.342       5.163     125.651
 Approx polarizability:     366.715      10.829     333.268     -25.945      12.859     199.435

 Summary of Natural Population Analysis:

                                       Natural Population
                Natural  -----------------------------------------------
    Atom  No    Charge         Core      Valence    Rydberg      Total
 -----------------------------------------------------------------------
      C    1   -0.42503      1.99904     4.41247    0.01353     6.42503
      H    2    0.23900      0.00000     0.75674    0.00426     0.76100
      H    3    0.20665      0.00000     0.78992    0.00342     0.79335
      C    4   -0.35422      1.99904     4.34058    0.01459     6.35422
      H    5    0.19557      0.00000     0.80040    0.00403     0.80443
      H    6    0.19050      0.00000     0.80550    0.00400     0.80950
      C    7   -0.25015      1.99900     4.23596    0.01519     6.25015
      H    8    0.23335      0.00000     0.76150    0.00515     0.76665
      C    9   -0.56031      1.99920     4.55045    0.01066     6.56031
      H   10    0.18160      0.00000     0.81525    0.00315     0.81840
      H   11    0.20301      0.00000     0.79462    0.00237     0.79699
      H   12    0.19954      0.00000     0.79768    0.00277     0.80046
      N   13   -0.52600      1.99931     5.51192    0.01477     7.52600
      C   14    0.44948      1.99919     3.51424    0.03709     5.55052
      N   15   -0.50987      1.99902     5.49605    0.01480     7.50987
      H   16    0.33810      0.00000     0.65719    0.00471     0.66190
      C   17    0.12951      1.99885     3.85182    0.01982     5.87049
      C   18    0.12673      1.99885     3.85011    0.02431     5.87327
      C   19   -0.17081      1.99902     4.15684    0.01495     6.17081
      H   20    0.19212      0.00000     0.80457    0.00331     0.80788
      C   21   -0.19478      1.99912     4.18148    0.01419     6.19478
      H   22    0.17789      0.00000     0.81918    0.00293     0.82211
      C   23   -0.18737      1.99911     4.17389    0.01437     6.18737
      H   24    0.17897      0.00000     0.81806    0.00297     0.82103
      C   25   -0.21988      1.99904     4.20649    0.01435     6.21988
      H   26    0.18375      0.00000     0.81334    0.00291     0.81625
      N   27   -0.47534      1.99892     5.45859    0.01783     7.47534
      H   28    0.30780      0.00000     0.68780    0.00440     0.69220
      C   29    0.44841      1.99916     3.51463    0.03781     5.55159
      N   30   -0.53223      1.99931     5.51798    0.01494     7.53223
      C   31    0.12944      1.99885     3.84729    0.02442     5.87056
      C   32    0.12973      1.99884     3.85212    0.01931     5.87027
      C   33   -0.21921      1.99903     4.20581    0.01436     6.21921
      H   34    0.18494      0.00000     0.81219    0.00287     0.81506
      C   35   -0.18479      1.99911     4.17124    0.01444     6.18479
      H   36    0.17796      0.00000     0.81907    0.00296     0.82204
      C   37   -0.19340      1.99911     4.18007    0.01422     6.19340
      H   38    0.17846      0.00000     0.81859    0.00295     0.82154
      C   39   -0.17296      1.99901     4.15893    0.01502     6.17296
      H   40    0.19385      0.00000     0.80284    0.00331     0.80615
 =======================================================================
   * Total *   -0.00000     43.97914   109.56341    0.45746   154.00000

 ******   29 imaginary frequencies (negative Signs) ******

                      1                      2                      3
                      A                      A                      A
 Frequencies --  -2989.1781             -2567.3027             -2293.3652
 Red. masses --      1.0766                 1.0569                 1.0765
 Frc consts  --      5.6677                 4.1044                 3.3359
 IR Inten    --     79.4324                36.4361                85.7643

                      4                      5                      6
                      A                      A                      A
 Frequencies --  -1781.4728             -1274.4209             -1268.3053
 Red. masses --      1.0473                 1.0791                 1.0788
 Frc consts  --      1.9584                 1.0326                 1.0224
 IR Inten    --     29.7356                64.5787                74.3679

                      7                      8                      9
                      A                      A                      A
 Frequencies --  -1224.3615             -1172.4392             -1167.3624
 Red. masses --      1.0087                 1.0323                 1.0495
 Frc consts  --      0.8909                 0.8361                 0.8427
 IR Inten    --      0.0262                 0.1172                 0.4091

                     10                     11                     12
                      A                      A                      A
 Frequencies --  -1081.2980             -1075.9893              -980.8036
 Red. masses --      1.0202                 1.0198                 1.0293
 Frc consts  --      0.7028                 0.6956                 0.5834
 IR Inten    --      0.6553                 0.2808                 0.0371

                     13                     14                     15
                      A                      A                      A
 Frequencies --   -976.1591              -932.6609              -897.7162
 Red. masses --      1.0294                 1.0340                 1.0385
 Frc consts  --      0.5779                 0.5299                 0.4931
 IR Inten    --      0.0219                13.2673                 2.1001

                     16                     17                     18
                      A                      A                      A
 Frequencies --   -811.3534              -792.0252              -698.2950
 Red. masses --      1.0724                 1.0619                 1.1458
 Frc consts  --      0.4159                 0.3925                 0.3292
 IR Inten    --      1.8547                 6.9421                 2.1223

                     19                     20                     21
                      A                      A                      A
 Frequencies --   -690.1610              -668.9121              -653.6800
 Red. masses --      1.1563                 1.1173                 1.1259
 Frc consts  --      0.3245                 0.2946                 0.2834
 IR Inten    --      1.6179                 0.2837                 0.1626

                     22                     23                     24
                      A                      A                      A
 Frequencies --   -502.3892              -497.4400              -480.2190
 Red. masses --      1.1295                 1.1325                 1.2459
 Frc consts  --      0.1680                 0.1651                 0.1693
 IR Inten    --     15.1633                10.8439                 8.8756

                     25                     26                     27
                      A                      A                      A
 Frequencies --   -463.9278              -215.4308              -169.0579
 Red. masses --      1.3011                 2.1215                 2.6345
 Frc consts  --      0.1650                 0.0580                 0.0444
 IR Inten    --      4.9329                 1.5617                 2.7759

                     28                     29                     30
                      A                      A                      A
 Frequencies --   -129.1326              -112.6239               103.0726
 Red. masses --      2.8535                 4.1818                 8.8703
 Frc consts  --      0.0280                 0.0313                 0.0555
 IR Inten    --      2.5713                 0.6101                 2.2721

                     31                     32                     33
                      A                      A                      A
 Frequencies --    125.0025               162.7681               215.1346
 Red. masses --      9.0746                 4.2620                 4.0329
 Frc consts  --      0.0835                 0.0665                 0.1100
 IR Inten    --      0.6753                 3.0611                 3.8348

                     34                     35                     36
                      A                      A                      A
 Frequencies --    235.7358               300.5084               309.0696
 Red. masses --      4.1643                 5.0871                 8.7665
 Frc consts  --      0.1363                 0.2707                 0.4934
 IR Inten    --      5.6209                 3.2051                 0.3262

                     37                     38                     39
                      A                      A                      A
 Frequencies --    312.8239               331.5445               380.5510
 Red. masses --      7.7000                 3.3606                 6.7262
 Frc consts  --      0.4440                 0.2176                 0.5739
 IR Inten    --      1.7570                 0.9333                 0.7133

                     40                     41                     42
                      A                      A                      A
 Frequencies --    416.9065               437.5918               521.8967
 Red. masses --      3.6055                 2.9912                 2.3276
 Frc consts  --      0.3692                 0.3375                 0.3735
 IR Inten    --      0.0698                 3.2986                 0.0776

                     43                     44                     45
                      A                      A                      A
 Frequencies --    544.7872               567.4449               601.4145
 Red. masses --      3.8555                 6.3630                 4.2394
 Frc consts  --      0.6742                 1.2071                 0.9034
 IR Inten    --      1.7813                 0.3195                 3.4324

                     46                     47                     48
                      A                      A                      A
 Frequencies --    630.1624               635.8488               646.9508
 Red. masses --      5.3196                 3.4956                 3.6954
 Frc consts  --      1.2446                 0.8327                 0.9113
 IR Inten    --      1.0545                 2.7371                 1.5748

                     49                     50                     51
                      A                      A                      A
 Frequencies --    659.4085               662.2121               678.1810
 Red. masses --      7.3845                 8.3265                 4.0449
 Frc consts  --      1.8918                 2.1513                 1.0961
 IR Inten    --      1.4622                 0.1188                 0.7137

                     52                     53                     54
                      A                      A                      A
 Frequencies --    689.5349               727.5962               741.0435
 Red. masses --      3.3000                 3.0290                 1.2607
 Frc consts  --      0.9244                 0.9448                 0.4079
 IR Inten    --      0.6189                 2.3911                12.6834

                     55                     56                     57
                      A                      A                      A
 Frequencies --    747.3870               780.4685               818.0079
 Red. masses --      3.2287                 4.8418                 3.4140
 Frc consts  --      1.0626                 1.7377                 1.3459
 IR Inten    --      0.0454                 5.2720                 2.3758

                     58                     59                     60
                      A                      A                      A
 Frequencies --    837.4920               849.9763               850.9168
 Red. masses --      4.1944                10.6204                10.4758
 Frc consts  --      1.7334                 4.5207                 4.4690
 IR Inten    --      4.9981                 0.4434                 0.4453

                     61                     62                     63
                      A                      A                      A
 Frequencies --    855.8648               885.9811               902.5624
 Red. masses --      2.7090                 2.9989                 2.6161
 Frc consts  --      1.1691                 1.3869                 1.2556
 IR Inten    --      9.6895                 1.7439                 0.6896

                     64                     65                     66
                      A                      A                      A
 Frequencies --    919.6157               934.6972               949.4392
 Red. masses --      1.9326                 2.8948                 5.6844
 Frc consts  --      0.9630                 1.4901                 3.0190
 IR Inten    --     11.6721                10.0833                 0.7018

                     67                     68                     69
                      A                      A                      A
 Frequencies --    951.5771               985.5238              1004.3820
 Red. masses --      6.0612                 2.8766                 3.5765
 Frc consts  --      3.2337                 1.6461                 2.1257
 IR Inten    --      1.2508                 5.3247                13.9045

                     70                     71                     72
                      A                      A                      A
 Frequencies --   1055.9788              1064.3432              1087.9567
 Red. masses --      2.3968                 3.6537                 2.2868
 Frc consts  --      1.5747                 2.4387                 1.5948
 IR Inten    --      7.5574                 4.6984                11.3106

                     73                     74                     75
                      A                      A                      A
 Frequencies --   1101.5164              1113.4610              1136.9651
 Red. masses --      1.3711                 1.1575                 2.1833
 Frc consts  --      0.9802                 0.8455                 1.6629
 IR Inten    --     12.5251                 6.9811                 7.0083

                     76                     77                     78
                      A                      A                      A
 Frequencies --   1167.8222              1194.1537              1201.7270
 Red. masses --      1.2404                 3.8120                 2.6650
 Frc consts  --      0.9967                 3.2028                 2.2676
 IR Inten    --      8.9493                 2.2869                 5.8301

                     79                     80                     81
                      A                      A                      A
 Frequencies --   1241.5806              1245.2160              1274.3470
 Red. masses --      8.3911                 7.8273                 7.8067
 Frc consts  --      7.6211                 7.1507                 7.4695
 IR Inten    --     46.2761                23.6605                12.7259

                     82                     83                     84
                      A                      A                      A
 Frequencies --   1282.4631              1439.2950              1443.2739
 Red. masses --      8.0510                 9.6316                 9.1749
 Frc consts  --      7.8017                11.7557                11.2603
 IR Inten    --      4.2839               107.8038                42.9867

                     85                     86                     87
                      A                      A                      A
 Frequencies --   1452.1094              1452.8976              1476.1018
 Red. masses --     10.1843                10.1831                 8.9722
 Frc consts  --     12.6527                12.6649                11.5181
 IR Inten    --     32.8974                24.4667                23.6770

                     88                     89                     90
                      A                      A                      A
 Frequencies --   1492.5853              1497.3463              1510.1565
 Red. masses --      9.0104                 9.1788                 9.4177
 Frc consts  --     11.8270                12.1249                12.6543
 IR Inten    --     16.1865                14.6390                48.1433

                     91                     92                     93
                      A                      A                      A
 Frequencies --   1535.3970              1541.3426              1681.8311
 Red. masses --     11.0748                11.2409                11.2416
 Frc consts  --     15.3826                15.7344                18.7345
 IR Inten    --     41.1836                46.0626                 4.0400

                     94                     95                     96
                      A                      A                      A
 Frequencies --   1694.4166              1698.9353              1705.5353
 Red. masses --     11.3183                10.5901                10.4947
 Frc consts  --     19.1458                18.0096                17.9862
 IR Inten    --      3.6631                 2.2988                 1.8193

                     97                     98                     99
                      A                      A                      A
 Frequencies --   4139.1178              4182.6069              4202.4529
 Red. masses --      1.0872                 1.0610                 1.0617
 Frc consts  --     10.9743                10.9356                11.0474
 IR Inten    --      0.1672                19.8147                12.0386

                    100                    101                    102
                      A                      A                      A
 Frequencies --   4243.1005              4292.7841              4318.9341
 Red. masses --      1.0322                 1.1074                 1.1072
 Frc consts  --     10.9496                12.0230                12.1681
 IR Inten    --      9.5222                13.2189                 0.8375

                    103                    104                    105
                      A                      A                      A
 Frequencies --   4434.4644              4438.3621              4755.6478
 Red. masses --      1.1071                 1.1069                 1.0873
 Frc consts  --     12.8267                12.8467                14.4884
 IR Inten    --      3.8606                 4.1099                 0.0894

                    106                    107                    108
                      A                      A                      A
 Frequencies --   4768.7829              4768.9817              4772.8040
 Red. masses --      1.0883                 1.0908                 1.0884
 Frc consts  --     14.5821                14.6165                14.6075
 IR Inten    --      0.1610                 0.8933                 1.0284

                    109                    110                    111
                      A                      A                      A
 Frequencies --   4775.7416              4782.3181              4785.8911
 Red. masses --      1.0892                 1.0910                 1.0920
 Frc consts  --     14.6365                14.7009                14.7367
 IR Inten    --      0.5307                 0.2472                 0.6359

                    112                    113                    114
                      A                      A                      A
 Frequencies --   4793.3592              6574.2148              7697.9762
 Red. masses --      1.0920                 1.0776                 1.0770
 Frc consts  --     14.7821                27.4416                37.6031
 IR Inten    --      0.5654                72.7382                73.4596

 - Thermochemistry -
 -------------------
 Temperature   298.150 Kelvin.  Pressure   1.00000 Atm.
 Atom     1 has atomic number  6 and mass  12.00000

 Molecular mass:   290.15315 amu.
 Principal axes and moments of inertia in atomic units:
                           1         2         3
     Eigenvalues --  3028.79425********************
           X            1.00000  -0.00094  -0.00144
           Y            0.00093   0.99998  -0.00547
           Z            0.00145   0.00547   0.99998
 This molecule is an asymmetric top.
 Rotational symmetry number  1.
 Warning -- assumption of classical behavior for rotation
           may cause significant error
 Rotational temperatures (Kelvin)      0.02860     0.00700     0.00611
 Rotational constants (GHZ):           0.59586     0.14592     0.12722
   29 imaginary frequencies ignored.
 Zero-point vibrational energy     887792.9 (Joules/Mol)
                                  212.18759 (Kcal/Mol)
 Warning -- explicit consideration of  16 degrees of freedom as
           vibrations may cause significant error
 Vibrational temperatures:    148.30   179.85   234.19   309.53   339.17
          (Kelvin)            432.36   444.68   450.08   477.02   547.53
                              599.84   629.60   750.89   783.83   816.43
                              865.30   906.66   914.84   930.82   948.74
                              952.78   975.75   992.09  1046.85  1066.20
                             1075.32  1122.92  1176.93  1204.96  1222.93
                             1224.28  1231.40  1274.73  1298.59  1323.12
                             1344.82  1366.03  1369.11  1417.95  1445.08
                             1519.32  1531.35  1565.33  1584.84  1602.02
                             1635.84  1680.24  1718.12  1729.02  1786.36
                             1791.59  1833.50  1845.18  2070.82  2076.55
                             2089.26  2090.40  2123.78  2147.50  2154.35
                             2172.78  2209.09  2217.65  2419.78  2437.89
                             2444.39  2453.88  5955.27  6017.84  6046.39
                             6104.88  6176.36  6213.98  6380.21  6385.81
                             6842.32  6861.22  6861.50  6867.00  6871.23
                             6880.69  6885.83  6896.57  9458.83 11075.67

 Zero-point correction=                           0.338142 (Hartree/Particle)
 Thermal correction to Energy=                    0.349635
 Thermal correction to Enthalpy=                  0.350579
 Thermal correction to Gibbs Free Energy=         0.299864
 Sum of electronic and zero-point Energies=           -913.439918
 Sum of electronic and thermal Energies=              -913.428426
 Sum of electronic and thermal Enthalpies=            -913.427481
 Sum of electronic and thermal Free Energies=         -913.478196

                     E (Thermal)             CV                S
                      KCal/Mol        Cal/Mol-Kelvin    Cal/Mol-Kelvin
 Total                  219.399             50.560            106.738
 Electronic               0.000              0.000              0.000
 Translational            0.889              2.981             42.893
 Rotational               0.889              2.981             34.629
 Vibrational            217.622             44.598             29.216
 Vibration     1          0.605              1.947              3.395
 Vibration     2          0.610              1.928              3.022
 Vibration     3          0.623              1.888              2.517
 Vibration     4          0.645              1.818              2.000
 Vibration     5          0.655              1.786              1.835
 Vibration     6          0.693              1.673              1.414
 Vibration     7          0.698              1.656              1.367
 Vibration     8          0.701              1.649              1.347
 Vibration     9          0.714              1.613              1.253
 Vibration    10          0.750              1.512              1.037
 Vibration    11          0.780              1.434              0.903
 Vibration    12          0.798              1.388              0.834
 Vibration    13          0.877              1.202              0.606
 Vibration    14          0.900              1.151              0.555
 Vibration    15          0.923              1.102              0.509
 Vibration    16          0.960              1.029              0.447

 1\1\GINC-JST373\Freq\RPBE1PBE\def2SVP\C18H18N4\LAPLAZA\04-Mar-2023\0\\
 #p pop=(regular,nbo,savenbos) freq=noraman def2svp empiricaldispersion
 =gd3bj output=wfx pbe1pbe\\IDAPOS_Complex_0_Ligand_0_NN_Cu_oriented\\0
 ,1\C,-1.82702904,2.80689055,-1.10984178\H,-1.01620467,2.47849001,-1.57
 065666\H,-2.43690552,3.18119226,-1.79404204\C,-1.4377219,3.90354723,-0
 .13544284\H,-0.96996498,4.61419406,-0.64076793\H,-2.26771071,4.3009969
 1,0.23198234\C,-0.54286664,3.48792524,1.04566305\H,-1.00533547,2.75993
 397,1.55199878\C,-0.37133141,4.68508908,1.97086238\H,0.01783458,5.4304

 Normal termination of Gaussian 16 at Sat Mar  4 12:53:24 2023.
