 Gaussian 16, Revision C.01,
 Gaussian 16:  ES64L-G16RevC.01  3-Jul-2019

 ----------------------------------------------------------------------
 #p pop=(regular,nbo,savenbos) freq=noraman def2svp empiricaldispersion
 =gd3bj output=wfx pbe1pbe
 ----------------------------------------------------------------------

 ----------------------------------------
 IGOWIK_Complex_8_Ligand_0_NN_Cu_oriented
 ----------------------------------------
 Symbolic Z-matrix:
 Charge =  0 Multiplicity = 1

                         Standard orientation:
 ---------------------------------------------------------------------
 Center     Atomic      Atomic             Coordinates (Angstroms)
 Number     Number       Type             X           Y           Z
 ---------------------------------------------------------------------
      1          7           0       -1.186956    0.643401   -0.598841
      2          7           0        1.186956   -0.643401   -0.598841
      3          1           0       -2.058746    0.458589   -0.781924
      4          1           0        2.058746   -0.458589   -0.781924
      5          6           0       -0.998278    2.113151   -0.415757
      6          6           0        0.998278   -2.113151   -0.415757
      7          1           0       -1.432513    2.404287    0.400938
      8          1           0        1.432513   -2.404287    0.400938
      9          1           0       -1.394225    2.593995   -1.160655
     10          6           0        0.486508    2.396539   -0.344858
     11          1           0        0.623144    3.330700   -0.118696
     12          1           0        0.883461    2.239389   -1.215400
     13          6           0        1.186956    1.520729    0.692615
     14          6           0       -1.186956   -1.520729    0.692615
     15          1           0        2.145748    1.570186    0.548122
     16          1           0       -2.145748   -1.570186    0.548122
     17          1           0        1.003543    1.876537    1.576619
     18          1           0       -1.003543   -1.876537    1.576619
     19          6           0       -0.762166   -0.062474    0.653126
     20          6           0        0.762166    0.062474    0.653126
     21          1           0       -1.126736    0.405556    1.432128
     22          1           0        1.126736   -0.405556    1.432128
     23          6           0       -0.486508   -2.396539   -0.344858
     24          1           0       -0.623144   -3.330700   -0.118696
     25          1           0       -0.883461   -2.239389   -1.215400
     26          1           0        1.394225   -2.593995   -1.160655
 ---------------------------------------------------------------------

 SCF Done:  E(RPBE1PBE) =  -422.980197256     A.U. after   12 cycles

 The electronic state is 1-A.
 Alpha  occ. eigenvalues --  -14.33781 -14.33774 -10.22704 -10.22690 -10.21145
 Alpha  occ. eigenvalues --  -10.21145 -10.19204 -10.19203 -10.18461 -10.18461
 Alpha  occ. eigenvalues --   -0.93314  -0.89260  -0.81723  -0.78892  -0.77012
 Alpha  occ. eigenvalues --   -0.69444  -0.65890  -0.64210  -0.60929  -0.57269
 Alpha  occ. eigenvalues --   -0.51663  -0.51578  -0.48755  -0.47854  -0.46554
 Alpha  occ. eigenvalues --   -0.43891  -0.43742  -0.41644  -0.41036  -0.38698
 Alpha  occ. eigenvalues --   -0.38468  -0.37088  -0.35610  -0.34853  -0.32831
 Alpha  occ. eigenvalues --   -0.31584  -0.30564  -0.22804  -0.19923
 Alpha virt. eigenvalues --    0.07638   0.09920   0.10579   0.11348   0.13424
 Alpha virt. eigenvalues --    0.13978   0.14086   0.15054   0.15154   0.16847
 Alpha virt. eigenvalues --    0.17689   0.19107   0.19543   0.20049   0.21588

 Mulliken charges:
               1
     1  N   -0.245662
     2  N   -0.245662
     3  H    0.055672
     4  H    0.055672
     5  C    0.208717
     6  C    0.208717
     7  H   -0.056352
     8  H   -0.056352
     9  H   -0.033504
    10  C    0.099424
    11  H   -0.032172
    12  H   -0.022068
    13  C    0.156288
    14  C    0.156288
    15  H   -0.032986
    16  H   -0.032986
    17  H   -0.038240
    18  H   -0.038240
    19  C   -0.009845
    20  C   -0.009845
    21  H   -0.049272
    22  H   -0.049272
    23  C    0.099424
    24  H   -0.032172
    25  H   -0.022068
    26  H   -0.033504
 Sum of Mulliken charges =  -0.00000

 Dipole moment (field-independent basis, Debye):
    X=             -0.0000    Y=              0.0000    Z=              1.3554  Tot=              1.3554
 Quadrupole moment (field-independent basis, Debye-Ang):
   XX=            -56.6865   YY=            -58.2694   ZZ=            -63.3548
   XY=             -0.9185   XZ=             -0.0000   YZ=              0.0000

  Exact polarizability:      80.208       0.850      97.315      -0.000       0.000      72.119
 Approx polarizability:     107.056       1.244     117.540       0.000       0.000     105.556

 Summary of Natural Population Analysis:

                                       Natural Population
                Natural  -----------------------------------------------
    Atom  No    Charge         Core      Valence    Rydberg      Total
 -----------------------------------------------------------------------
      N    1   -0.68901      1.99939     5.67066    0.01895     7.68901
      N    2   -0.68901      1.99939     5.67066    0.01895     7.68901
      H    3    0.33086      0.00000     0.66302    0.00612     0.66914
      H    4    0.33086      0.00000     0.66302    0.00612     0.66914
      C    5   -0.14284      1.99906     4.12938    0.01439     6.14284
      C    6   -0.14284      1.99906     4.12938    0.01439     6.14284
      H    7    0.14644      0.00000     0.84837    0.00519     0.85356
      H    8    0.14644      0.00000     0.84837    0.00519     0.85356
      H    9    0.18041      0.00000     0.81672    0.00288     0.81959
      C   10   -0.36344      1.99909     4.35147    0.01288     6.36344
      H   11    0.18437      0.00000     0.81209    0.00354     0.81563
      H   12    0.18865      0.00000     0.80665    0.00470     0.81135
      C   13   -0.37424      1.99905     4.36082    0.01437     6.37424
      C   14   -0.37424      1.99905     4.36082    0.01437     6.37424
      H   15    0.18949      0.00000     0.80649    0.00402     0.81051
      H   16    0.18949      0.00000     0.80649    0.00402     0.81051
      H   17    0.18805      0.00000     0.80798    0.00398     0.81195
      H   18    0.18805      0.00000     0.80798    0.00398     0.81195
      C   19   -0.00068      1.99896     3.98191    0.01982     6.00068
      C   20   -0.00068      1.99896     3.98191    0.01982     6.00068
      H   21    0.16194      0.00000     0.83265    0.00542     0.83806
      H   22    0.16194      0.00000     0.83265    0.00542     0.83806
      C   23   -0.36344      1.99909     4.35147    0.01288     6.36344
      H   24    0.18437      0.00000     0.81209    0.00354     0.81563
      H   25    0.18865      0.00000     0.80665    0.00470     0.81135
      H   26    0.18041      0.00000     0.81672    0.00288     0.81959
 =======================================================================
   * Total *   -0.00000     19.99111    57.77640    0.23249    78.00000

 ******   19 imaginary frequencies (negative Signs) ******

                      1                      2                      3
                      A                      B                      A
 Frequencies --  -1256.6376             -1246.1557             -1114.6734
 Red. masses --      1.0903                 1.1106                 1.0403
 Frc consts  --      1.0144                 1.0161                 0.7616
 IR Inten    --    136.4246                39.3030                 3.6274

                      4                      5                      6
                      B                      A                      B
 Frequencies --  -1104.7998             -1074.9606             -1064.6847
 Red. masses --      1.0720                 1.0193                 1.0463
 Frc consts  --      0.7709                 0.6940                 0.6988
 IR Inten    --      2.1837                 0.0831                 3.6373

                      7                      8                      9
                      A                      B                      B
 Frequencies --  -1037.9571             -1022.9233              -571.0207
 Red. masses --      1.0277                 1.0763                 1.2240
 Frc consts  --      0.6524                 0.6635                 0.2352
 IR Inten    --      0.2229                 1.7724                 4.5776

                     10                     11                     12
                      A                      A                      B
 Frequencies --   -553.0417              -533.2948              -523.0299
 Red. masses --      1.3301                 1.4036                 1.4192
 Frc consts  --      0.2397                 0.2352                 0.2287
 IR Inten    --      0.1657                 0.0001                 2.9673

                     13                     14                     15
                      B                      A                      B
 Frequencies --   -514.1503              -512.7165              -445.6338
 Red. masses --      1.3062                 1.2557                 1.4702
 Frc consts  --      0.2034                 0.1945                 0.1720
 IR Inten    --      2.8005                 1.3712                 5.8625

                     16                     17                     18
                      A                      A                      A
 Frequencies --   -407.5904              -364.3043              -296.7535
 Red. masses --      1.5769                 1.7013                 1.4699
 Frc consts  --      0.1543                 0.1330                 0.0763
 IR Inten    --      1.0568                 2.8122                 9.1909

                     19                     20                     21
                      B                      B                      A
 Frequencies --    -18.9817               272.7511               297.0901
 Red. masses --      1.2175                 1.2172                 1.1576
 Frc consts  --      0.0003                 0.0533                 0.0602
 IR Inten    --     11.2497                 1.4808                 0.0197

                     22                     23                     24
                      A                      B                      B
 Frequencies --    428.2912               437.1233               511.7813
 Red. masses --      1.2530                 1.1244                 1.3303
 Frc consts  --      0.1354                 0.1266                 0.2053
 IR Inten    --      0.2270                10.9716                18.7329

                     25                     26                     27
                      A                      A                      B
 Frequencies --    513.7669               539.6491               658.6112
 Red. masses --      1.7933                 1.3726                 1.3578
 Frc consts  --      0.2789                 0.2355                 0.3470
 IR Inten    --      0.1918                 1.0966                 1.1433

                     28                     29                     30
                      A                      A                      B
 Frequencies --    682.4650               705.7927               759.4311
 Red. masses --      3.0316                 2.1792                 2.2270
 Frc consts  --      0.8319                 0.6396                 0.7567
 IR Inten    --      0.1593                 0.3766                 5.3207

                     31                     32                     33
                      A                      B                      B
 Frequencies --    774.4838               801.8628               816.8208
 Red. masses --      2.2127                 2.3755                 1.7660
 Frc consts  --      0.7820                 0.8999                 0.6942
 IR Inten    --      0.1927                 1.3354                 1.2372

                     34                     35                     36
                      A                      B                      A
 Frequencies --    836.0368               844.9072               877.9876
 Red. masses --      2.2522                 3.3937                 2.4990
 Frc consts  --      0.9275                 1.4274                 1.1350
 IR Inten    --      0.0210                 1.8721                 0.7761

                     37                     38                     39
                      A                      B                      B
 Frequencies --    911.9208               917.0651               925.7023
 Red. masses --      3.1009                 2.7535                 2.5342
 Frc consts  --      1.5193                 1.3644                 1.2795
 IR Inten    --      0.9480                10.0157                 0.6336

                     40                     41                     42
                      A                      B                      B
 Frequencies --    960.3849               966.0268               975.5311
 Red. masses --      1.2805                 1.3117                 1.4779
 Frc consts  --      0.6958                 0.7212                 0.8286
 IR Inten    --     13.5239                41.7175                 2.5511

                     43                     44                     45
                      A                      A                      B
 Frequencies --    976.8336               993.0126               996.1567
 Red. masses --      1.2781                 1.5216                 1.5326
 Frc consts  --      0.7186                 0.8840                 0.8960
 IR Inten    --      9.9381                 4.7314                 2.9943

                     46                     47                     48
                      A                      B                      A
 Frequencies --   1060.8305              1063.2581              1087.5247
 Red. masses --      2.5627                 1.9687                 2.4564
 Frc consts  --      1.6992                 1.3113                 1.7117
 IR Inten    --      0.2662                10.4242                 3.3827

                     49                     50                     51
                      B                      A                      B
 Frequencies --   1113.6638              1125.7162              1130.0416
 Red. masses --      3.3878                 3.1865                 4.1523
 Frc consts  --      2.4756                 2.3792                 3.1241
 IR Inten    --     12.5840                 2.5251                37.3911

                     52                     53                     54
                      A                      B                      A
 Frequencies --   1188.2971              1198.9270              1225.9202
 Red. masses --      4.7624                 4.7182                 6.0090
 Frc consts  --      3.9621                 3.9959                 5.3208
 IR Inten    --      4.5267                 3.0393                 3.7558

                     55                     56                     57
                      B                      A                      B
 Frequencies --   1227.3456              1299.7845              4348.1550
 Red. masses --      6.0978                 7.1086                 1.0863
 Frc consts  --      5.4120                 7.0758                12.1011
 IR Inten    --      9.9444                 0.0352                18.7200

                     58                     59                     60
                      A                      B                      A
 Frequencies --   4352.6493              4407.5288              4407.9374
 Red. masses --      1.0870                 1.0588                 1.0588
 Frc consts  --     12.1333                12.1183                12.1208
 IR Inten    --     53.4082                69.1553                 5.9529

                     61                     62                     63
                      B                      A                      B
 Frequencies --   4412.2069              4412.5007              4423.1250
 Red. masses --      1.0606                 1.0606                 1.0614
 Frc consts  --     12.1653                12.1672                12.2349
 IR Inten    --     14.6637                19.3677                43.8744

                     64                     65                     66
                      A                      B                      A
 Frequencies --   4423.3627              4529.2984              4529.3899
 Red. masses --      1.0614                 1.1100                 1.1098
 Frc consts  --     12.2364                13.4158                13.4149
 IR Inten    --      0.0875                 4.8366                25.0707

                     67                     68                     69
                      A                      B                      B
 Frequencies --   4531.2082              4531.3108              4545.7276
 Red. masses --      1.1089                 1.1084                 1.1077
 Frc consts  --     13.4144                13.4085                13.4862
 IR Inten    --      0.8566                 4.8580                11.6848

                     70                     71                     72
                      A                      B                      A
 Frequencies --   4545.8789              5015.5788              5015.7128
 Red. masses --      1.1079                 1.0760                 1.0761
 Frc consts  --     13.4888                15.9473                15.9498
 IR Inten    --     14.3753                 4.6896                 0.9987

 - Thermochemistry -
 -------------------
 Temperature   298.150 Kelvin.  Pressure   1.00000 Atm.
 Atom     1 has atomic number  7 and mass  14.00307

 Molecular mass:   140.13135 amu.
 Principal axes and moments of inertia in atomic units:
                           1         2         3
     Eigenvalues --   733.583001566.050451901.02049
           X            0.00915   0.99996   0.00000
           Y            0.99996  -0.00915   0.00000
           Z           -0.00000   0.00000   1.00000
 This molecule is an asymmetric top.
 Rotational symmetry number  2.
 Warning -- assumption of classical behavior for rotation
           may cause significant error
 Rotational temperatures (Kelvin)      0.11807     0.05531     0.04556
 Rotational constants (GHZ):           2.46017     1.15242     0.94935
   19 imaginary frequencies ignored.
 Zero-point vibrational energy     625254.4 (Joules/Mol)
                                  149.43938 (Kcal/Mol)
 Warning -- explicit consideration of   7 degrees of freedom as
           vibrations may cause significant error
 Vibrational temperatures:    392.43   427.45   616.22   628.92   736.34
          (Kelvin)            739.20   776.43   947.59   981.91  1015.48
                             1092.65  1114.31  1153.70  1175.22  1202.87
                             1215.63  1263.23  1312.05  1319.45  1331.88
                             1381.78  1389.90  1403.57  1405.45  1428.72
                             1433.25  1526.30  1529.79  1564.71  1602.31
                             1619.65  1625.88  1709.69  1724.99  1763.83
                             1765.88  1870.10  6256.03  6262.49  6341.45
                             6342.04  6348.18  6348.60  6363.89  6364.23
                             6516.65  6516.78  6519.40  6519.55  6540.29
                             6540.51  7216.30  7216.49

 Zero-point correction=                           0.238147 (Hartree/Particle)
 Thermal correction to Energy=                    0.244546
 Thermal correction to Enthalpy=                  0.245490
 Thermal correction to Gibbs Free Energy=         0.207962
 Sum of electronic and zero-point Energies=           -422.742050
 Sum of electronic and thermal Energies=              -422.735652
 Sum of electronic and thermal Enthalpies=            -422.734708
 Sum of electronic and thermal Free Energies=         -422.772235

                     E (Thermal)             CV                S
                      KCal/Mol        Cal/Mol-Kelvin    Cal/Mol-Kelvin
 Total                  153.455             29.232             78.983
 Electronic               0.000              0.000              0.000
 Translational            0.889              2.981             40.724
 Rotational               0.889              2.981             27.792
 Vibrational            151.677             23.270             10.467
 Vibration     1          0.676              1.724              1.579
 Vibration     2          0.691              1.679              1.433
 Vibration     3          0.790              1.409              0.864
 Vibration     4          0.797              1.389              0.836
 Vibration     5          0.867              1.224              0.629
 Vibration     6          0.869              1.219              0.625
 Vibration     7          0.895              1.162              0.566

 Normal termination of Gaussian 16 at Sat Mar  4 11:37:08 2023.
