 Gaussian 16, Revision C.01,
 Gaussian 16:  ES64L-G16RevC.01  3-Jul-2019

 ----------------------------------------------------------------------
 #p pop=(regular,nbo,savenbos) freq=noraman def2svp empiricaldispersion
 =gd3bj output=wfx pbe1pbe
 ----------------------------------------------------------------------

 ----------------------------------------
 IGOXEH_Complex_0_Ligand_0_NN_Cu_oriented
 ----------------------------------------
 Symbolic Z-matrix:
 Charge =  0 Multiplicity = 1

                         Standard orientation:
 ---------------------------------------------------------------------
 Center     Atomic      Atomic             Coordinates (Angstroms)
 Number     Number       Type             X           Y           Z
 ---------------------------------------------------------------------
      1          7           0       -0.530052    1.291840   -0.503791
      2          6           0       -2.008358    1.197035   -0.315782
      3          1           0       -2.460442    1.635732   -1.053118
      4          1           0       -2.262875    1.645999    0.505888
      5          6           0       -2.423915   -0.255464   -0.253112
      6          6           0       -1.642436   -1.005481    0.808404
      7          1           0       -1.964036   -0.739386    1.684233
      8          6           0        0.134442    0.751471    0.729487
      9          1           0       -0.293836    1.147312    1.517113
     10          6           0       -0.134442    2.694589   -0.824103
     11          6           0       -0.427742    3.717414    0.269135
     12          1           0       -1.376512    3.846228    0.341863
     13          1           0       -0.007561    4.552688    0.047083
     14          1           0       -0.082218    3.399429    1.106279
     15          7           0        0.530052   -1.291840   -0.503791
     16          6           0        2.008358   -1.197035   -0.315782
     17          1           0        2.460442   -1.635732   -1.053118
     18          1           0        2.262875   -1.645999    0.505888
     19          6           0        2.423915    0.255464   -0.253112
     20          6           0        1.642436    1.005481    0.808404
     21          1           0        1.964036    0.739386    1.684233
     22          6           0       -0.134442   -0.751471    0.729487
     23          1           0        0.293836   -1.147312    1.517113
     24          6           0        0.134442   -2.694589   -0.824103
     25          6           0        0.427742   -3.717414    0.269135
     26          1           0        1.376512   -3.846228    0.341863
     27          1           0        0.007561   -4.552688    0.047083
     28          1           0        0.082218   -3.399429    1.106279
     29          1           0       -1.808012   -1.956461    0.710144
     30          1           0        0.816440    2.709838   -1.012886
     31          1           0       -0.816440   -2.709838   -1.012886
     32          1           0        0.596832   -2.967000   -1.632619
     33          1           0       -0.596832    2.967000   -1.632619
     34          1           0       -2.274543   -0.671194   -1.117335
     35          1           0        2.274543    0.671194   -1.117335
     36          1           0       -3.372604   -0.311530   -0.054271
     37          1           0        3.372604    0.311530   -0.054271
     38          1           0        1.808012    1.956461    0.710144
 ---------------------------------------------------------------------

 SCF Done:  E(RPBE1PBE) =  -579.801012820     A.U. after   12 cycles

 The electronic state is 1-A.
 Alpha  occ. eigenvalues --  -14.35633 -14.35629 -10.22852 -10.22838 -10.21206
 Alpha  occ. eigenvalues --  -10.21206 -10.21014 -10.21013 -10.19157 -10.19156
 Alpha  occ. eigenvalues --  -10.18499 -10.18498 -10.17146 -10.17145  -0.93717
 Alpha  occ. eigenvalues --   -0.90428  -0.82406  -0.81366  -0.77156  -0.76870
 Alpha  occ. eigenvalues --   -0.76130  -0.69669  -0.68085  -0.64839  -0.64393
 Alpha  occ. eigenvalues --   -0.61217  -0.60068  -0.55009  -0.50710  -0.50511
 Alpha  occ. eigenvalues --   -0.49768  -0.49767  -0.48918  -0.46029  -0.45496
 Alpha  occ. eigenvalues --   -0.45158  -0.43633  -0.43083  -0.42733  -0.40465
 Alpha  occ. eigenvalues --   -0.39519  -0.39033  -0.38697  -0.37948  -0.37854
 Alpha  occ. eigenvalues --   -0.37203  -0.36859  -0.35679  -0.34533  -0.34451
 Alpha  occ. eigenvalues --   -0.32467  -0.31435  -0.29506  -0.21397  -0.18937
 Alpha virt. eigenvalues --    0.07799   0.09003   0.09674   0.10501   0.12017
 Alpha virt. eigenvalues --    0.12661   0.12955   0.13817   0.14843   0.14979
 Alpha virt. eigenvalues --    0.16391   0.16629   0.16652   0.17051   0.17762

 Mulliken charges:
               1
     1  N   -0.445584
     2  C    0.231945
     3  H   -0.037207
     4  H   -0.058323
     5  C    0.144304
     6  C    0.149633
     7  H   -0.043910
     8  C    0.050608
     9  H   -0.051170
    10  C    0.178289
    11  C    0.106447
    12  H   -0.015440
    13  H   -0.024649
    14  H   -0.021242
    15  N   -0.445584
    16  C    0.231945
    17  H   -0.037207
    18  H   -0.058323
    19  C    0.144304
    20  C    0.149633
    21  H   -0.043910
    22  C    0.050608
    23  H   -0.051170
    24  C    0.178289
    25  C    0.106447
    26  H   -0.015440
    27  H   -0.024649
    28  H   -0.021242
    29  H   -0.039037
    30  H   -0.029704
    31  H   -0.029704
    32  H   -0.032635
    33  H   -0.032635
    34  H   -0.026375
    35  H   -0.026375
    36  H   -0.035951
    37  H   -0.035951
    38  H   -0.039037
 Sum of Mulliken charges =  -0.00000

 Dipole moment (field-independent basis, Debye):
    X=              0.0000    Y=              0.0000    Z=              1.0813  Tot=              1.0813
 Quadrupole moment (field-independent basis, Debye-Ang):
   XX=            -83.4102   YY=            -83.2743   ZZ=            -88.5140
   XY=             -0.2702   XZ=             -0.0000   YZ=              0.0000

  Exact polarizability:     123.630      -0.128     138.252       0.000       0.000     100.294
 Approx polarizability:     162.275       2.240     165.272      -0.000       0.000     151.710

 Summary of Natural Population Analysis:

                                       Natural Population
                Natural  -----------------------------------------------
    Atom  No    Charge         Core      Valence    Rydberg      Total
 -----------------------------------------------------------------------
      N    1   -0.56816      1.99942     5.55363    0.01512     7.56816
      C    2   -0.14842      1.99905     4.13230    0.01707     6.14842
      H    3    0.18209      0.00000     0.81473    0.00318     0.81791
      H    4    0.14972      0.00000     0.84425    0.00603     0.85028
      C    5   -0.35962      1.99910     4.34723    0.01329     6.35962
      C    6   -0.37434      1.99906     4.36135    0.01393     6.37434
      H    7    0.19100      0.00000     0.80510    0.00390     0.80900
      C    8   -0.00123      1.99895     3.98133    0.02095     6.00123
      H    9    0.16725      0.00000     0.82681    0.00594     0.83275
      C   10   -0.13417      1.99907     4.11923    0.01586     6.13417
      C   11   -0.56671      1.99918     4.56074    0.00679     6.56671
      H   12    0.18053      0.00000     0.81701    0.00246     0.81947
      H   13    0.18851      0.00000     0.80863    0.00286     0.81149
      H   14    0.17867      0.00000     0.81883    0.00250     0.82133
      N   15   -0.56816      1.99942     5.55363    0.01512     7.56816
      C   16   -0.14842      1.99905     4.13230    0.01707     6.14842
      H   17    0.18209      0.00000     0.81473    0.00318     0.81791
      H   18    0.14972      0.00000     0.84425    0.00603     0.85028
      C   19   -0.35962      1.99910     4.34723    0.01329     6.35962
      C   20   -0.37434      1.99906     4.36135    0.01393     6.37434
      H   21    0.19100      0.00000     0.80510    0.00390     0.80900
      C   22   -0.00123      1.99895     3.98133    0.02095     6.00123
      H   23    0.16725      0.00000     0.82681    0.00594     0.83275
      C   24   -0.13417      1.99907     4.11923    0.01586     6.13417
      C   25   -0.56671      1.99918     4.56074    0.00679     6.56671
      H   26    0.18053      0.00000     0.81701    0.00246     0.81947
      H   27    0.18851      0.00000     0.80863    0.00286     0.81149
      H   28    0.17867      0.00000     0.81883    0.00250     0.82133
      H   29    0.19160      0.00000     0.80486    0.00354     0.80840
      H   30    0.17051      0.00000     0.82586    0.00364     0.82949
      H   31    0.17051      0.00000     0.82586    0.00364     0.82949
      H   32    0.17654      0.00000     0.82025    0.00320     0.82346
      H   33    0.17654      0.00000     0.82025    0.00320     0.82346
      H   34    0.18954      0.00000     0.80586    0.00460     0.81046
      H   35    0.18954      0.00000     0.80586    0.00460     0.81046
      H   36    0.18668      0.00000     0.80984    0.00348     0.81332
      H   37    0.18668      0.00000     0.80984    0.00348     0.81332
      H   38    0.19160      0.00000     0.80486    0.00354     0.80840
 =======================================================================
   * Total *   -0.00000     27.98765    81.71566    0.29669   110.00000

 ******   27 imaginary frequencies (negative Signs) ******

                      1                      2                      3
                      A                      B                      A
 Frequencies --  -1386.1707             -1383.9392             -1107.4835
 Red. masses --      1.0098                 1.0116                 1.0383
 Frc consts  --      1.1432                 1.1415                 0.7503
 IR Inten    --      0.0045                 0.0068                 3.5886

                      4                      5                      6
                      B                      A                      B
 Frequencies --  -1100.0562             -1090.0089             -1089.4746
 Red. masses --      1.0662                 1.0436                 1.0410
 Frc consts  --      0.7602                 0.7305                 0.7280
 IR Inten    --      7.2882                 0.4787                 9.3001

                      7                      8                      9
                      A                      B                      A
 Frequencies --  -1062.6999             -1061.5532             -1039.4277
 Red. masses --      1.0196                 1.0307                 1.0308
 Frc consts  --      0.6784                 0.6843                 0.6562
 IR Inten    --      1.0560                 3.6546                 0.2954

                     10                     11                     12
                      B                      A                      B
 Frequencies --  -1038.5591             -1029.2618             -1023.8251
 Red. masses --      1.0334                 1.0544                 1.0688
 Frc consts  --      0.6567                 0.6581                 0.6601
 IR Inten    --      3.2085                 3.1706                12.0516

                     13                     14                     15
                      A                      B                      B
 Frequencies --   -988.9687              -973.8600              -558.4519
 Red. masses --      1.0435                 1.0642                 1.2239
 Frc consts  --      0.6013                 0.5947                 0.2249
 IR Inten    --      0.1334                 0.2714                 1.9747

                     16                     17                     18
                      A                      A                      B
 Frequencies --   -545.6147              -533.9543              -516.0912
 Red. masses --      1.2778                 1.5505                 1.2899
 Frc consts  --      0.2241                 0.2605                 0.2024
 IR Inten    --      0.0893                 0.0652                 0.9163

                     19                     20                     21
                      A                      B                      B
 Frequencies --   -494.4305              -480.9521              -431.0727
 Red. masses --      1.2745                 1.5174                 1.5667
 Frc consts  --      0.1836                 0.2068                 0.1715
 IR Inten    --      0.0061                 3.6117                 1.3031

                     22                     23                     24
                      A                      A                      B
 Frequencies --   -415.9865              -371.7435              -365.5403
 Red. masses --      1.6123                 1.7117                 1.7664
 Frc consts  --      0.1644                 0.1394                 0.1391
 IR Inten    --      0.4725                 0.1667                 0.7020

                     25                     26                     27
                      A                      B                      A
 Frequencies --   -344.2273              -329.0235              -258.2404
 Red. masses --      1.7941                 1.5595                 1.9113
 Frc consts  --      0.1253                 0.0995                 0.0751
 IR Inten    --      2.8364                 2.4007                 0.9396

                     28                     29                     30
                      A                      B                      A
 Frequencies --    235.3952               243.6545               297.9643
 Red. masses --      1.2117                 1.3234                 1.6508
 Frc consts  --      0.0396                 0.0463                 0.0864
 IR Inten    --      0.3066                 4.1665                 5.3697

                     31                     32                     33
                      B                      A                      B
 Frequencies --    348.1991               366.2615               378.2312
 Red. masses --      1.3171                 1.1545                 1.9620
 Frc consts  --      0.0941                 0.0912                 0.1654
 IR Inten    --     27.3678                14.1035                 9.3234

                     34                     35                     36
                      A                      B                      A
 Frequencies --    397.3962               437.6841               471.9047
 Red. masses --      2.2730                 1.2268                 2.1078
 Frc consts  --      0.2115                 0.1385                 0.2766
 IR Inten    --      0.0022                 4.6103                 0.1448

                     37                     38                     39
                      A                      B                      B
 Frequencies --    514.3555               532.8579               544.1715
 Red. masses --      1.3157                 1.7786                 1.2961
 Frc consts  --      0.2051                 0.2975                 0.2261
 IR Inten    --      0.6775                 7.2294                 6.4487

                     40                     41                     42
                      A                      B                      A
 Frequencies --    568.8397               596.6995               641.5731
 Red. masses --      1.9191                 1.4624                 1.6097
 Frc consts  --      0.3659                 0.3068                 0.3904
 IR Inten    --      0.0001                 6.1519                 0.3396

                     43                     44                     45
                      A                      B                      B
 Frequencies --    691.5343               713.2614               728.7892
 Red. masses --      2.8457                 2.7965                 2.4391
 Frc consts  --      0.8018                 0.8382                 0.7633
 IR Inten    --      0.0044                 2.5861                16.1815

                     46                     47                     48
                      A                      B                      A
 Frequencies --    747.6856               775.7234               795.7875
 Red. masses --      3.7790                 2.7802                 2.5886
 Frc consts  --      1.2447                 0.9857                 0.9659
 IR Inten    --      2.2518                21.6520                 1.0956

                     49                     50                     51
                      B                      A                      A
 Frequencies --    800.8120               801.8546               830.1641
 Red. masses --      2.3920                 2.5129                 2.0818
 Frc consts  --      0.9038                 0.9520                 0.8453
 IR Inten    --      6.3123                 1.4903                 0.0096

                     52                     53                     54
                      B                      B                      A
 Frequencies --    837.3667               856.4851               887.4342
 Red. masses --      2.9204                 1.9847                 2.4998
 Frc consts  --      1.2065                 0.8578                 1.1599
 IR Inten    --     14.9163                 6.1850                 0.0382

                     55                     56                     57
                      B                      A                      A
 Frequencies --    894.5634               913.1270               926.9135
 Red. masses --      2.9436                 2.7601                 2.9256
 Frc consts  --      1.3879                 1.3559                 1.4810
 IR Inten    --      6.5010                 3.3401                 3.1775

                     58                     59                     60
                      B                      B                      B
 Frequencies --    944.5383               950.7538               977.3946
 Red. masses --      2.4437                 1.4883                 1.2680
 Frc consts  --      1.2845                 0.7926                 0.7137
 IR Inten    --     13.0796                 5.6889                15.9694

                     61                     62                     63
                      A                      A                      B
 Frequencies --    977.6374               983.4925               986.1221
 Red. masses --      1.2924                 1.2407                 1.5248
 Frc consts  --      0.7278                 0.7071                 0.8736
 IR Inten    --      9.0635                 1.7776                 2.4171

                     64                     65                     66
                      A                      B                      B
 Frequencies --    990.3653              1006.5199              1017.0733
 Red. masses --      1.2514                 1.4697                 1.2001
 Frc consts  --      0.7232                 0.8772                 0.7314
 IR Inten    --     20.0561                 7.9328                26.4087

                     67                     68                     69
                      A                      A                      A
 Frequencies --   1022.3799              1028.5083              1036.9730
 Red. masses --      1.2709                 1.3042                 1.1497
 Frc consts  --      0.7827                 0.8129                 0.7284
 IR Inten    --     10.8811                 2.5356                 2.1124

                     70                     71                     72
                      B                      B                      B
 Frequencies --   1037.4337              1042.7087              1072.8244
 Red. masses --      1.1681                 2.2059                 2.6161
 Frc consts  --      0.7407                 1.4131                 1.7740
 IR Inten    --     21.5549                 7.4031                10.2372

                     73                     74                     75
                      A                      B                      A
 Frequencies --   1081.9159              1100.0854              1104.0702
 Red. masses --      2.4234                 2.2197                 3.6614
 Frc consts  --      1.6713                 1.5827                 2.6296
 IR Inten    --     10.9854                 5.9126                 2.0524

                     76                     77                     78
                      A                      B                      A
 Frequencies --   1143.0207              1155.4006              1174.9045
 Red. masses --      3.4073                 4.1731                 4.7163
 Frc consts  --      2.6228                 3.2823                 3.8358
 IR Inten    --      7.5750                15.5893                 0.0228

                     79                     80                     81
                      B                      A                      B
 Frequencies --   1183.7367              1198.2639              1207.4038
 Red. masses --      4.3079                 3.8986                 4.5068
 Frc consts  --      3.5565                 3.2981                 3.8710
 IR Inten    --     48.3905                12.1892                24.0400

                     82                     83                     84
                      A                      B                      A
 Frequencies --   1236.4900              1237.9311              1286.0536
 Red. masses --      5.9267                 6.3405                 8.2242
 Frc consts  --      5.3389                 5.7249                 8.0142
 IR Inten    --      3.8589                25.0186                 0.6811

                     85                     86                     87
                      B                      A                      B
 Frequencies --   4336.2386              4340.6903              4407.2758
 Red. masses --      1.0861                 1.0867                 1.0592
 Frc consts  --     12.0323                12.0640                12.1218
 IR Inten    --     14.8584                46.9479                50.9711

                     88                     89                     90
                      A                      B                      A
 Frequencies --   4407.6262              4414.5460              4414.5687
 Red. masses --      1.0592                 1.0605                 1.0605
 Frc consts  --     12.1241                12.1774                12.1771
 IR Inten    --      9.7666                26.9626                 7.9861

                     91                     92                     93
                      B                      A                      B
 Frequencies --   4420.6453              4420.9189              4426.7974
 Red. masses --      1.0611                 1.0611                 1.0608
 Frc consts  --     12.2177                12.2191                12.2480
 IR Inten    --     23.7522                17.1940                16.7287

                     94                     95                     96
                      A                      B                      A
 Frequencies --   4427.0734              4464.8767              4464.9090
 Red. masses --      1.0609                 1.0323                 1.0323
 Frc consts  --     12.2501                12.1249                12.1251
 IR Inten    --     17.9574                11.4947                 3.5520

                     97                     98                     99
                      B                      A                      A
 Frequencies --   4530.7721              4530.8469              4535.3777
 Red. masses --      1.1089                 1.1088                 1.1088
 Frc consts  --     13.4120                13.4107                13.4377
 IR Inten    --      5.3021                 5.6198                 6.5741

                    100                    101                    102
                      B                      B                      A
 Frequencies --   4535.5847              4539.6571              4539.8839
 Red. masses --      1.1085                 1.1079                 1.1080
 Frc consts  --     13.4350                13.4520                13.4547
 IR Inten    --      4.2751                16.2292                22.4841

                    103                    104                    105
                      A                      B                      A
 Frequencies --   4545.9028              4545.9933              4667.3432
 Red. masses --      1.1091                 1.1090                 1.1067
 Frc consts  --     13.5035                13.5034                14.2038
 IR Inten    --      1.2341                13.1446                 1.8448

                    106                    107                    108
                      B                      A                      B
 Frequencies --   4667.3437              4678.6793              4678.6880
 Red. masses --      1.1066                 1.1068                 1.1067
 Frc consts  --     14.2036                14.2742                14.2738
 IR Inten    --      7.1601                 1.9036                 6.9012

 - Thermochemistry -
 -------------------
 Temperature   298.150 Kelvin.  Pressure   1.00000 Atm.
 Atom     1 has atomic number  7 and mass  14.00307

 Molecular mass:   196.19395 amu.
 Principal axes and moments of inertia in atomic units:
                           1         2         3
     Eigenvalues --  1646.280713131.441514175.60093
           X           -0.19176   0.98144   0.00000
           Y            0.98144   0.19176   0.00000
           Z           -0.00000  -0.00000   1.00000
 This molecule is an asymmetric top.
 Rotational symmetry number  2.
 Warning -- assumption of classical behavior for rotation
           may cause significant error
 Rotational temperatures (Kelvin)      0.05261     0.02766     0.02074
 Rotational constants (GHZ):           1.09625     0.57633     0.43221
   27 imaginary frequencies ignored.
 Zero-point vibrational energy     932506.6 (Joules/Mol)
                                  222.87443 (Kcal/Mol)
 Warning -- explicit consideration of  14 degrees of freedom as
           vibrations may cause significant error
 Vibrational temperatures:    338.68   350.56   428.70   500.98   526.97
          (Kelvin)            544.19   571.76   629.73   678.97   740.04
                              766.66   782.94   818.43   858.52   923.08
                              994.96  1026.22  1048.57  1075.75  1116.09
                             1144.96  1152.19  1153.69  1194.42  1204.78
                             1232.29  1276.82  1287.08  1313.79  1333.62
                             1358.98  1367.92  1406.25  1406.60  1415.03
                             1418.81  1424.91  1448.16  1463.34  1470.98
                             1479.79  1491.97  1492.64  1500.23  1543.56
                             1556.64  1582.78  1588.51  1644.55  1662.36
                             1690.43  1703.13  1724.03  1737.18  1779.03
                             1781.11  1850.34  6238.88  6245.29  6341.09
                             6341.59  6351.55  6351.58  6360.32  6360.72
                             6369.17  6369.57  6423.96  6424.01  6518.77
                             6518.88  6525.40  6525.69  6531.55  6531.88
                             6540.54  6540.67  6715.27  6715.27  6731.58
                             6731.59

 Zero-point correction=                           0.355173 (Hartree/Particle)
 Thermal correction to Energy=                    0.364317
 Thermal correction to Enthalpy=                  0.365261
 Thermal correction to Gibbs Free Energy=         0.322114
 Sum of electronic and zero-point Energies=           -579.445840
 Sum of electronic and thermal Energies=              -579.436696
 Sum of electronic and thermal Enthalpies=            -579.435752
 Sum of electronic and thermal Free Energies=         -579.478898

                     E (Thermal)             CV                S
                      KCal/Mol        Cal/Mol-Kelvin    Cal/Mol-Kelvin
 Total                  228.612             44.477             90.810
 Electronic               0.000              0.000              0.000
 Translational            0.889              2.981             41.727
 Rotational               0.889              2.981             30.066
 Vibrational            226.835             38.516             19.017
 Vibration     1          0.655              1.787              1.837
 Vibration     2          0.659              1.773              1.776
 Vibration     3          0.691              1.678              1.428
 Vibration     4          0.726              1.579              1.174
 Vibration     5          0.739              1.542              1.095
 Vibration     6          0.749              1.517              1.046
 Vibration     7          0.764              1.476              0.972
 Vibration     8          0.798              1.388              0.834
 Vibration     9          0.829              1.312              0.732
 Vibration    10          0.869              1.218              0.623
 Vibration    11          0.888              1.177              0.581
 Vibration    12          0.899              1.152              0.556
 Vibration    13          0.925              1.099              0.506
 Vibration    14          0.955              1.039              0.455

 1\1\GINC-JST195\Freq\RPBE1PBE\def2SVP\C12H24N2\LAPLAZA\04-Mar-2023\0\\
 #p pop=(regular,nbo,savenbos) freq=noraman def2svp empiricaldispersion
 =gd3bj output=wfx pbe1pbe\\IGOXEH_Complex_0_Ligand_0_NN_Cu_oriented\\0
 ,1\N,-1.5306107,-1.39635438,0.\C,-1.7186197,-1.86980617,1.40364512\H,-
 0.9812837,-2.44727811,1.65536319\H,-2.5402897,-2.38178079,1.46868629\C
 ,-1.7812897,-0.68376887,2.33946319\C,-2.8428057,0.3067581,1.90118034\H
 ,-3.7186347,-0.06149869,2.09770072\C,-2.7638887,-0.64419132,-0.4096354
 \H,-3.5515147,-1.1729774,-0.16367353\C,-1.2102987,-2.54393795,-0.89847

 Normal termination of Gaussian 16 at Sat Mar  4 12:04:36 2023.
