 Gaussian 16, Revision C.01,
 Gaussian 16:  ES64L-G16RevC.01  3-Jul-2019

 ----------------------------------------------------------------------
 #p pop=(regular,nbo,savenbos) freq=noraman def2svp empiricaldispersion
 =gd3bj output=wfx pbe1pbe
 ----------------------------------------------------------------------

 ----------------------------------------
 IGUFOG_Complex_0_Ligand_1_ON_Cu_oriented
 ----------------------------------------
 Symbolic Z-matrix:
 Charge = -1 Multiplicity = 1

                         Standard orientation:
 ---------------------------------------------------------------------
 Center     Atomic      Atomic             Coordinates (Angstroms)
 Number     Number       Type             X           Y           Z
 ---------------------------------------------------------------------
      1          6           0        1.310806   -0.200821   -0.267358
      2          6           0        2.726286   -0.156190   -0.164108
      3          6           0        3.357937    0.901997    0.455378
      4          1           0        4.286959    0.937262    0.478418
      5          6           0        0.568072    0.830716    0.350262
      6          6           0        4.757309   -1.242104   -0.745268
      7          1           0        5.086877   -0.481124   -1.229510
      8          1           0        5.067600   -2.047381   -1.165108
      9          1           0        5.077910   -1.208679    0.159337
     10          8           0        0.786627   -1.214398   -0.909074
     11          8           0        3.341731   -1.224822   -0.745621
     12          6           0        1.244513    1.879204    1.011363
     13          1           0        0.754671    2.550744    1.427512
     14          6           0       -0.872191    0.775357    0.429379
     15          6           0       -2.608908   -1.839269    1.870148
     16          1           0       -1.680368   -1.869888    1.629824
     17          1           0       -2.894278   -2.710168    2.156238
     18          1           0       -2.734733   -1.210249    2.584192
     19          6           0       -3.432167   -1.407919    0.662890
     20          1           0       -3.316108   -2.061341   -0.044194
     21          1           0       -4.369640   -1.402930    0.909131
     22          6           0       -3.059563   -0.033870    0.125383
     23          6           0       -3.970737    0.321239   -1.044712
     24          7           0       -1.638119    0.008284   -0.248330
     25          6           0        2.608374    1.921079    1.048922
     26          1           0        3.039579    2.629417    1.469968
     27          8           0       -3.662903    1.555902   -1.635789
     28          1           0       -1.282201    1.354432    1.030454
     29          1           0       -3.904850   -0.374773   -1.717418
     30          1           0       -4.889454    0.342613   -0.732913
     31          1           0       -3.070062    1.441222   -2.125347
     32          1           0       -3.207094    0.622881    0.837915
 ---------------------------------------------------------------------

 SCF Done:  E(RPBE1PBE) =  -745.631687633     A.U. after   17 cycles

 The electronic state is 1-A.
 Alpha  occ. eigenvalues --  -19.08301 -19.06526 -18.94485 -14.20348 -10.12789
 Alpha  occ. eigenvalues --  -10.12337 -10.11313 -10.10413 -10.09183 -10.09070
 Alpha  occ. eigenvalues --  -10.07974 -10.06107 -10.05839 -10.05431 -10.04799
 Alpha  occ. eigenvalues --  -10.04579  -0.96300  -0.93084  -0.78770  -0.77265
 Alpha  occ. eigenvalues --   -0.70280  -0.69305  -0.64736  -0.64021  -0.60760
 Alpha  occ. eigenvalues --   -0.57045  -0.55922  -0.51671  -0.47750  -0.46191
 Alpha  occ. eigenvalues --   -0.44399  -0.43145  -0.40080  -0.38906  -0.37547
 Alpha  occ. eigenvalues --   -0.36278  -0.36058  -0.35120  -0.34379  -0.33247
 Alpha  occ. eigenvalues --   -0.31012  -0.30211  -0.28470  -0.26874  -0.25990
 Alpha  occ. eigenvalues --   -0.25474  -0.24856  -0.24060  -0.23280  -0.22074
 Alpha  occ. eigenvalues --   -0.21061  -0.20037  -0.17543  -0.17151  -0.15767
 Alpha  occ. eigenvalues --   -0.13721  -0.09656  -0.08088  -0.02899  -0.01281
 Alpha virt. eigenvalues --    0.13428   0.19311   0.19482   0.20405   0.21638
 Alpha virt. eigenvalues --    0.22013   0.23119   0.23278   0.24073   0.25935
 Alpha virt. eigenvalues --    0.26178   0.26791   0.27889   0.28135   0.29026

 Mulliken charges:
               1
     1  C    0.131385
     2  C    0.137108
     3  C   -0.033213
     4  H   -0.172727
     5  C   -0.114177
     6  C    0.371433
     7  H   -0.045347
     8  H   -0.038163
     9  H   -0.045389
    10  O   -0.417892
    11  O   -0.360166
    12  C    0.087353
    13  H   -0.163738
    14  C    0.129695
    15  C    0.165203
    16  H    0.016338
    17  H   -0.052936
    18  H   -0.049055
    19  C    0.039508
    20  H   -0.028891
    21  H   -0.055695
    22  C   -0.003816
    23  C    0.381880
    24  N   -0.222246
    25  C    0.050650
    26  H   -0.153242
    27  O   -0.246974
    28  H   -0.154849
    29  H   -0.055544
    30  H   -0.063592
    31  H    0.048465
    32  H   -0.081364
 Sum of Mulliken charges =  -1.00000

 Dipole moment (field-independent basis, Debye):
    X=             -1.0144    Y=              0.3511    Z=              1.9288  Tot=              2.2073
 Quadrupole moment (field-independent basis, Debye-Ang):
   XX=           -108.5456   YY=           -108.5492   ZZ=           -100.8726
   XY=              3.4065   XZ=             -3.4226   YZ=             -1.8598

  Exact polarizability:     219.183       6.624     130.477       2.140      18.821     104.341
 Approx polarizability:     276.635      15.914     216.568      12.110      53.340     161.412

 Summary of Natural Population Analysis:

                                       Natural Population
                Natural  -----------------------------------------------
    Atom  No    Charge         Core      Valence    Rydberg      Total
 -----------------------------------------------------------------------
      C    1    0.36316      1.99876     3.59758    0.04051     5.63684
      C    2    0.26994      1.99866     3.70582    0.02558     5.73006
      C    3   -0.30800      1.99902     4.29377    0.01522     6.30800
      H    4    0.15739      0.00000     0.83906    0.00355     0.84261
      C    5   -0.22109      1.99894     4.20315    0.01900     6.22109
      C    6   -0.14687      1.99895     4.13688    0.01103     6.14687
      H    7    0.14215      0.00000     0.85311    0.00474     0.85785
      H    8    0.15645      0.00000     0.84147    0.00208     0.84355
      H    9    0.14146      0.00000     0.85370    0.00483     0.85854
      O   10   -0.70624      1.99980     6.69857    0.00787     8.70624
      O   11   -0.53453      1.99965     6.52323    0.01165     8.53453
      C   12   -0.18199      1.99907     4.16755    0.01537     6.18199
      H   13    0.15218      0.00000     0.84386    0.00396     0.84782
      C   14    0.14758      1.99903     3.82506    0.02832     5.85242
      C   15   -0.53636      1.99916     4.52919    0.00801     6.53636
      H   16    0.20240      0.00000     0.79211    0.00549     0.79760
      H   17    0.17212      0.00000     0.82523    0.00264     0.82788
      H   18    0.16951      0.00000     0.82722    0.00327     0.83049
      C   19   -0.35900      1.99902     4.34641    0.01357     6.35900
      H   20    0.18077      0.00000     0.81326    0.00597     0.81923
      H   21    0.16560      0.00000     0.82993    0.00447     0.83440
      C   22   -0.02913      1.99896     4.00840    0.02177     6.02913
      C   23    0.01565      1.99886     3.96503    0.02047     5.98435
      N   24   -0.53230      1.99932     5.51136    0.02161     7.53230
      C   25   -0.27324      1.99911     4.25689    0.01724     6.27324
      H   26    0.15324      0.00000     0.84333    0.00343     0.84676
      O   27   -0.69628      1.99964     6.67515    0.02149     8.69628
      H   28    0.10079      0.00000     0.89039    0.00882     0.89921
      H   29    0.14221      0.00000     0.85229    0.00550     0.85779
      H   30    0.14784      0.00000     0.84868    0.00348     0.85216
      H   31    0.40282      0.00000     0.58903    0.00815     0.59718
      H   32    0.14174      0.00000     0.84743    0.01083     0.85826
 =======================================================================
   * Total *   -1.00000     31.98595    87.63411    0.37993   120.00000

 ******   24 imaginary frequencies (negative Signs) ******

                      1                      2                      3
                      A                      A                      A
 Frequencies --  -2660.5965             -2221.1306             -1478.6432
 Red. masses --      1.0637                 1.0755                 1.0866
 Frc consts  --      4.4364                 3.1262                 1.3997
 IR Inten    --    231.0268               108.3168                56.3506

                      4                      5                      6
                      A                      A                      A
 Frequencies --  -1407.2319             -1400.7242             -1389.4582
 Red. masses --      1.0429                 1.0168                 1.0127
 Frc consts  --      1.2168                 1.1755                 1.1519
 IR Inten    --     23.2119                 2.9474                 0.3723

                      7                      8                      9
                      A                      A                      A
 Frequencies --  -1374.3870             -1285.4057             -1126.9537
 Red. masses --      1.0462                 1.0486                 1.0391
 Frc consts  --      1.1643                 1.0208                 0.7775
 IR Inten    --      2.4078                 1.9844                11.5307

                     10                     11                     12
                      A                      A                      A
 Frequencies --  -1079.8885             -1014.6635             -1001.4374
 Red. masses --      1.0386                 1.0464                 1.0541
 Frc consts  --      0.7136                 0.6347                 0.6229
 IR Inten    --      3.4069                16.6551                 3.1725

                     13                     14                     15
                      A                      A                      A
 Frequencies --   -961.2859              -888.1204              -875.9407
 Red. masses --      1.0819                 1.1079                 1.1287
 Frc consts  --      0.5891                 0.5149                 0.5102
 IR Inten    --      3.3998                12.2137                 3.6492

                     16                     17                     18
                      A                      A                      A
 Frequencies --   -850.5260              -785.9479              -739.9045
 Red. masses --      1.0768                 1.0909                 1.1146
 Frc consts  --      0.4589                 0.3970                 0.3595
 IR Inten    --      7.8728                 6.6570                 0.9709

                     19                     20                     21
                      A                      A                      A
 Frequencies --   -522.4475              -490.0449              -407.7356
 Red. masses --      1.5312                 1.2892                 1.4406
 Frc consts  --      0.2463                 0.1824                 0.1411
 IR Inten    --      1.7173                 0.5189                 0.8050

                     22                     23                     24
                      A                      A                      A
 Frequencies --   -288.9674              -219.9595              -161.0383
 Red. masses --      2.7126                 3.4567                 3.5209
 Frc consts  --      0.1335                 0.0985                 0.0538
 IR Inten    --      0.5915                 0.3277                 0.9544

                     25                     26                     27
                      A                      A                      A
 Frequencies --     88.4887               191.4425               268.3099
 Red. masses --      9.7828                 7.6751                 4.7937
 Frc consts  --      0.0451                 0.1657                 0.2033
 IR Inten    --      3.2360                 0.6690                 1.0792

                     28                     29                     30
                      A                      A                      A
 Frequencies --    304.5079               321.6238               359.5186
 Red. masses --      4.2966                 6.8961                 3.8909
 Frc consts  --      0.2347                 0.4203                 0.2963
 IR Inten    --      3.0130                 3.6203                 9.8341

                     31                     32                     33
                      A                      A                      A
 Frequencies --    376.6072               398.2538               427.4939
 Red. masses --      1.4170                 8.1979                 5.3038
 Frc consts  --      0.1184                 0.7661                 0.5711
 IR Inten    --      3.2894                 7.3722                 0.4700

                     34                     35                     36
                      A                      A                      A
 Frequencies --    468.0408               484.9451               540.9120
 Red. masses --      5.7416                 6.4271                 2.5383
 Frc consts  --      0.7411                 0.8905                 0.4376
 IR Inten    --      0.4550                 0.8731                 1.7366

                     37                     38                     39
                      A                      A                      A
 Frequencies --    594.5114               598.0188               606.9479
 Red. masses --      5.5624                 3.1817                 1.6309
 Frc consts  --      1.1583                 0.6704                 0.3540
 IR Inten    --      1.1605                15.2703                34.6568

                     40                     41                     42
                      A                      A                      A
 Frequencies --    623.9921               627.7858               654.8516
 Red. masses --      7.5646                 2.5817                 8.0037
 Frc consts  --      1.7354                 0.5995                 2.0222
 IR Inten    --      4.0814                38.5632                 2.2581

                     43                     44                     45
                      A                      A                      A
 Frequencies --    676.8042               691.8332               727.7381
 Red. masses --      1.7463                 3.7740                 3.8989
 Frc consts  --      0.4713                 1.0643                 1.2166
 IR Inten    --     11.7634                20.9788                11.9143

                     46                     47                     48
                      A                      A                      A
 Frequencies --    767.5402               791.5341               822.6222
 Red. masses --      2.7240                 3.7384                 6.9802
 Frc consts  --      0.9455                 1.3800                 2.7830
 IR Inten    --     16.7196                 8.7454                 7.5077

                     49                     50                     51
                      A                      A                      A
 Frequencies --    828.4885               841.6723               902.1842
 Red. masses --      2.4384                 3.9326                 2.2159
 Frc consts  --      0.9861                 1.6414                 1.0626
 IR Inten    --      5.2719                24.6585                 5.0750

                     52                     53                     54
                      A                      A                      A
 Frequencies --    915.1487               936.4687               956.6712
 Red. masses --      6.1900                 2.6560                 1.1821
 Frc consts  --      3.0544                 1.3724                 0.6374
 IR Inten    --     11.6520                17.9791                 6.7297

                     55                     56                     57
                      A                      A                      A
 Frequencies --   1005.0134              1014.3047              1018.5493
 Red. masses --      1.4366                 1.2704                 1.0482
 Frc consts  --      0.8549                 0.7701                 0.6407
 IR Inten    --     17.4794                 1.6794                14.3875

                     58                     59                     60
                      A                      A                      A
 Frequencies --   1028.9502              1039.6927              1074.7923
 Red. masses --      1.7344                 1.2548                 1.9598
 Frc consts  --      1.0819                 0.7991                 1.3339
 IR Inten    --      4.9599                 3.7313                 9.9341

                     61                     62                     63
                      A                      A                      A
 Frequencies --   1083.1894              1124.1885              1176.7275
 Red. masses --      1.8577                 4.7020                 3.7032
 Frc consts  --      1.2842                 3.5011                 3.0212
 IR Inten    --     33.2850                63.6969                12.2244

                     64                     65                     66
                      A                      A                      A
 Frequencies --   1189.4625              1217.2918              1224.0344
 Red. masses --      5.4060                 5.2035                 6.0118
 Frc consts  --      4.5064                 4.5429                 5.3069
 IR Inten    --     15.2283                32.8735                43.1743

                     67                     68                     69
                      A                      A                      A
 Frequencies --   1285.3180              1353.7529              1450.7250
 Red. masses --      8.0460                 9.9796                10.2325
 Frc consts  --      7.8316                10.7756                12.6882
 IR Inten    --    173.6697               147.2309               329.6914

                     70                     71                     72
                      A                      A                      A
 Frequencies --   1462.8235              1549.7093              1622.5481
 Red. masses --      9.7951                10.0953                10.9842
 Frc consts  --     12.3494                14.2847                17.0378
 IR Inten    --    115.1731               103.1256                 4.9057

                     73                     74                     75
                      A                      A                      A
 Frequencies --   1672.9465              1723.2813              4328.3062
 Red. masses --     10.8161                10.7061                 1.0859
 Frc consts  --     17.8355                18.7325                11.9862
 IR Inten    --    183.7390               395.5063                71.0294

                     76                     77                     78
                      A                      A                      A
 Frequencies --   4416.8982              4426.6986              4459.9944
 Red. masses --      1.0597                 1.0601                 1.0303
 Frc consts  --     12.1808                12.2388                12.0752
 IR Inten    --     28.5979                51.4964                79.1429

                     79                     80                     81
                      A                      A                      A
 Frequencies --   4469.4008              4537.7788              4545.9960
 Red. masses --      1.0324                 1.1097                 1.1077
 Frc consts  --     12.1502                13.4629                13.4878
 IR Inten    --     22.6487                12.6265                24.0863

                     82                     83                     84
                      A                      A                      A
 Frequencies --   4655.8887              4670.4088              4674.6096
 Red. masses --      1.1072                 1.1066                 1.1079
 Frc consts  --     14.1414                14.2222                14.2639
 IR Inten    --     21.8433                11.7300                 6.7581

                     85                     86                     87
                      A                      A                      A
 Frequencies --   4685.4152              4992.6961              5014.0050
 Red. masses --      1.1069                 1.0866                 1.0859
 Frc consts  --     14.3175                15.9581                16.0841
 IR Inten    --      1.4672                45.0353                 4.8857

                     88                     89                     90
                      A                      A                      A
 Frequencies --   5024.7177              5034.4884              7273.5739
 Red. masses --      1.0884                 1.0913                 1.0672
 Frc consts  --     16.1911                16.2969                33.2640
 IR Inten    --     12.9155                15.2804                68.1766

 - Thermochemistry -
 -------------------
 Temperature   298.150 Kelvin.  Pressure   1.00000 Atm.
 Atom     1 has atomic number  6 and mass  12.00000

 Molecular mass:   222.11302 amu.
 Principal axes and moments of inertia in atomic units:
                           1         2         3
     Eigenvalues --  1872.331427175.137767635.85772
           X            0.99993   0.00912  -0.00699
           Y           -0.00930   0.99961  -0.02617
           Z            0.00675   0.02623   0.99963
 This molecule is an asymmetric top.
 Rotational symmetry number  1.
 Warning -- assumption of classical behavior for rotation
           may cause significant error
 Rotational temperatures (Kelvin)      0.04626     0.01207     0.01134
 Rotational constants (GHZ):           0.96390     0.25153     0.23635
   24 imaginary frequencies ignored.
 Zero-point vibrational energy     719692.2 (Joules/Mol)
                                  172.01056 (Kcal/Mol)
 Warning -- explicit consideration of  15 degrees of freedom as
           vibrations may cause significant error
 Vibrational temperatures:    127.32   275.44   386.04   438.12   462.74
          (Kelvin)            517.27   541.85   573.00   615.07   673.41
                              697.73   778.25   855.37   860.42   873.26
                              897.79   903.24   942.19   973.77   995.39
                             1047.05  1104.32  1138.84  1183.57  1192.01
                             1210.98  1298.04  1316.69  1347.37  1376.44
                             1445.99  1459.36  1465.47  1480.43  1495.89
                             1546.39  1558.47  1617.46  1693.05  1711.37
                             1751.41  1761.11  1849.29  1947.75  2087.27
                             2104.68  2229.69  2334.48  2407.00  2479.42
                             6227.47  6354.93  6369.03  6416.94  6430.47
                             6528.85  6540.67  6698.79  6719.68  6725.72
                             6741.27  7183.38  7214.03  7229.45  7243.51
                            10465.05

 Zero-point correction=                           0.274116 (Hartree/Particle)
 Thermal correction to Energy=                    0.283684
 Thermal correction to Enthalpy=                  0.284629
 Thermal correction to Gibbs Free Energy=         0.238462
 Sum of electronic and zero-point Energies=           -745.357571
 Sum of electronic and thermal Energies=              -745.348003
 Sum of electronic and thermal Enthalpies=            -745.347059
 Sum of electronic and thermal Free Energies=         -745.393225

                     E (Thermal)             CV                S
                      KCal/Mol        Cal/Mol-Kelvin    Cal/Mol-Kelvin
 Total                  178.015             42.104             97.165
 Electronic               0.000              0.000              0.000
 Translational            0.889              2.981             42.097
 Rotational               0.889              2.981             32.995
 Vibrational            176.237             36.142             22.074
 Vibration     1          0.601              1.957              3.693
 Vibration     2          0.634              1.852              2.214
 Vibration     3          0.673              1.731              1.607
 Vibration     4          0.695              1.665              1.392
 Vibration     5          0.707              1.632              1.302
 Vibration     6          0.734              1.556              1.124
 Vibration     7          0.747              1.520              1.053
 Vibration     8          0.765              1.474              0.969
 Vibration     9          0.789              1.410              0.867
 Vibration    10          0.825              1.321              0.743
 Vibration    11          0.841              1.283              0.697
 Vibration    12          0.896              1.160              0.563
 Vibration    13          0.952              1.043              0.459
 Vibration    14          0.956              1.036              0.453
 Vibration    15          0.966              1.017              0.438

 Normal termination of Gaussian 16 at Mon Mar  6 10:57:23 2023.
