 Gaussian 16, Revision C.01,
 Gaussian 16:  ES64L-G16RevC.01  3-Jul-2019

 ----------------------------------------------------------------------
 #p pop=(regular,nbo,savenbos) freq=noraman def2svp empiricaldispersion
 =gd3bj output=wfx pbe1pbe
 ----------------------------------------------------------------------

 ----------------------------------------
 ILATIA_Complex_7_Ligand_1_NN_Cu_oriented
 ----------------------------------------
 Symbolic Z-matrix:
 Charge =  0 Multiplicity = 1

                         Standard orientation:
 ---------------------------------------------------------------------
 Center     Atomic      Atomic             Coordinates (Angstroms)
 Number     Number       Type             X           Y           Z
 ---------------------------------------------------------------------
      1          7           0       -3.191125   -0.280803    0.844290
      2          7           0       -3.062169    1.292759   -0.740129
      3          6           0       -2.486140    0.267624   -0.081426
      4          6           0       -4.344825    1.598198   -0.055048
      5          1           0       -5.090412    1.677800   -0.701980
      6          6           0       -4.513357    0.364256    0.854667
      7          1           0       -4.760579    0.642291    1.782732
      8          6           0       -5.542565   -0.537661    0.293048
      9          1           0       -5.278120   -0.813319   -0.609931
     10          1           0       -6.401614   -0.067671    0.251919
     11          1           0       -5.630189   -1.329695    0.863245
     12          1           0       -2.580796    2.024891   -1.234461
     13          7           0       -0.865279   -1.345993    0.436716
     14          7           0        0.346079   -1.798155    0.180273
     15          7           0        0.820220   -0.999171   -0.780153
     16          6           0       -0.067266   -0.046523   -1.130527
     17          1           0        0.037205    0.638323   -1.780255
     18          6           0       -1.155092   -0.293729   -0.331407
     19          6           0        2.210775   -1.177128   -1.251432
     20          1           0        2.277653   -0.899757   -2.198095
     21          1           0        2.459246   -2.133942   -1.193897
     22          6           0        3.161210   -0.363303   -0.420725
     23          6           0        3.804395    0.714598   -0.987921
     24          1           0        3.652947    0.926878   -1.902310
     25          6           0        4.669974    1.489723   -0.240508
     26          1           0        5.128544    2.216114   -0.648181
     27          6           0        4.867542    1.212129    1.087812
     28          6           0        4.243974    0.138891    1.660906
     29          1           0        4.400183   -0.067236    2.574440
     30          6           0        3.377891   -0.650988    0.905629
     31          1           0        2.936689   -1.388973    1.307785
     32          1           0       -4.281441    2.432651    0.474669
     33          1           0        5.437505    1.764673    1.608943
 ---------------------------------------------------------------------

 SCF Done:  E(RPBE1PBE) =  -776.504869870     A.U. after   15 cycles

 The electronic state is 1-A.
 Alpha  occ. eigenvalues --  -14.48852 -14.43708 -14.40265 -14.39037 -14.33180
 Alpha  occ. eigenvalues --  -10.28695 -10.27963 -10.27149 -10.25752 -10.24986
 Alpha  occ. eigenvalues --  -10.23745 -10.23145 -10.23123 -10.22867 -10.22794
 Alpha  occ. eigenvalues --  -10.22730 -10.22553 -10.17288  -1.12494  -0.99949
 Alpha  occ. eigenvalues --   -0.93900  -0.89615  -0.86199  -0.84297  -0.81986
 Alpha  occ. eigenvalues --   -0.79417  -0.78635  -0.74836  -0.71872  -0.67022
 Alpha  occ. eigenvalues --   -0.65509  -0.64136  -0.62721  -0.61188  -0.58851
 Alpha  occ. eigenvalues --   -0.58254  -0.57027  -0.53938  -0.52028  -0.50238
 Alpha  occ. eigenvalues --   -0.49807  -0.49378  -0.48114  -0.46215  -0.45377
 Alpha  occ. eigenvalues --   -0.44841  -0.44743  -0.44369  -0.43473  -0.39823
 Alpha  occ. eigenvalues --   -0.39064  -0.38260  -0.37816  -0.37382  -0.36865
 Alpha  occ. eigenvalues --   -0.35626  -0.33881  -0.30212  -0.27905  -0.27795
 Alpha  occ. eigenvalues --   -0.27358  -0.27261  -0.23975  -0.21287
 Alpha virt. eigenvalues --   -0.01742  -0.01431   0.00051   0.01308   0.06237
 Alpha virt. eigenvalues --    0.07790   0.09731   0.10269   0.11787   0.13080
 Alpha virt. eigenvalues --    0.13479   0.13553   0.13842   0.14723   0.14874

 Mulliken charges:
               1
     1  N   -0.247663
     2  N   -0.290023
     3  C    0.099043
     4  C    0.300542
     5  H   -0.029594
     6  C   -0.099533
     7  H   -0.010881
     8  C    0.214702
     9  H   -0.020840
    10  H   -0.019959
    11  H   -0.001363
    12  H    0.118659
    13  N   -0.146158
    14  N   -0.025837
    15  N   -0.250884
    16  C    0.170882
    17  H   -0.081888
    18  C    0.021474
    19  C    0.440427
    20  H   -0.022032
    21  H    0.012385
    22  C   -0.144602
    23  C    0.058966
    24  H   -0.095960
    25  C    0.086095
    26  H   -0.074413
    27  C    0.088273
    28  C    0.088721
    29  H   -0.069521
    30  C    0.089745
    31  H   -0.077468
    32  H   -0.009258
    33  H   -0.072037
 Sum of Mulliken charges =  -0.00000

 Dipole moment (field-independent basis, Debye):
    X=              2.3146    Y=              4.5986    Z=             -3.8577  Tot=              6.4332
 Quadrupole moment (field-independent basis, Debye-Ang):
   XX=            -90.8404   YY=           -102.9442   ZZ=            -98.6320
   XY=             -8.0871   XZ=              2.3898   YZ=              1.7602

  Exact polarizability:     199.734      10.420     128.142      -4.970     -11.970     130.412
 Approx polarizability:     237.249      21.147     209.962     -13.773     -37.122     227.736

 Summary of Natural Population Analysis:

                                       Natural Population
                Natural  -----------------------------------------------
    Atom  No    Charge         Core      Valence    Rydberg      Total
 -----------------------------------------------------------------------
      N    1   -0.53063      1.99934     5.51501    0.01628     7.53063
      N    2   -0.67797      1.99918     5.66726    0.01152     7.67797
      C    3    0.42080      1.99905     3.54481    0.03534     5.57920
      C    4   -0.16373      1.99908     4.14896    0.01570     6.16373
      H    5    0.18081      0.00000     0.81609    0.00309     0.81919
      C    6   -0.00608      1.99908     3.98831    0.01869     6.00608
      H    7    0.18916      0.00000     0.80707    0.00377     0.81084
      C    8   -0.56937      1.99916     4.55917    0.01103     6.56937
      H    9    0.19254      0.00000     0.80462    0.00283     0.80746
      H   10    0.18633      0.00000     0.81064    0.00304     0.81367
      H   11    0.20241      0.00000     0.79415    0.00344     0.79759
      H   12    0.39846      0.00000     0.59652    0.00502     0.60154
      N   13   -0.23349      1.99937     5.21181    0.02230     7.23349
      N   14   -0.08128      1.99953     5.05040    0.03135     7.08128
      N   15   -0.19510      1.99919     5.17745    0.01845     7.19510
      C   16   -0.00596      1.99902     3.98785    0.01909     6.00596
      H   17    0.18716      0.00000     0.81078    0.00206     0.81284
      C   18    0.05407      1.99905     3.91996    0.02692     5.94593
      C   19   -0.16097      1.99898     4.14102    0.02097     6.16097
      H   20    0.20260      0.00000     0.79439    0.00301     0.79740
      H   21    0.22293      0.00000     0.77359    0.00348     0.77707
      C   22   -0.05259      1.99896     4.03818    0.01545     6.05259
      C   23   -0.18553      1.99899     4.17165    0.01490     6.18553
      H   24    0.17786      0.00000     0.81901    0.00313     0.82214
      C   25   -0.16513      1.99910     4.15180    0.01423     6.16513
      H   26    0.18017      0.00000     0.81680    0.00303     0.81983
      C   27   -0.17557      1.99909     4.16262    0.01385     6.17557
      C   28   -0.15735      1.99910     4.14425    0.01399     6.15735
      H   29    0.18126      0.00000     0.81577    0.00297     0.81874
      C   30   -0.16486      1.99897     4.15047    0.01541     6.16486
      H   31    0.19264      0.00000     0.80374    0.00362     0.80736
      H   32    0.17610      0.00000     0.82071    0.00319     0.82390
      H   33    0.18028      0.00000     0.81664    0.00308     0.81972
 =======================================================================
   * Total *   -0.00000     35.98425    91.63151    0.38424   128.00000

 ******   20 imaginary frequencies (negative Signs) ******

                      1                      2                      3
                      A                      A                      A
 Frequencies --  -1269.1902             -1227.7304             -1214.7931
 Red. masses --      1.0817                 1.0561                 1.0112
 Frc consts  --      1.0266                 0.9379                 0.8792
 IR Inten    --     79.7081                28.3277                 0.7067

                      4                      5                      6
                      A                      A                      A
 Frequencies --  -1161.0304             -1100.0321             -1032.0455
 Red. masses --      1.0444                 1.0249                 1.0111
 Frc consts  --      0.8295                 0.7307                 0.6345
 IR Inten    --      0.3016                 2.0921                 0.2964

                      7                      8                      9
                      A                      A                      A
 Frequencies --   -941.3529              -887.3044              -844.6800
 Red. masses --      1.0277                 1.0503                 1.0816
 Frc consts  --      0.5366                 0.4872                 0.4547
 IR Inten    --      0.3644                 1.2608                 2.2542

                     10                     11                     12
                      A                      A                      A
 Frequencies --   -809.6662              -786.9497              -741.2078
 Red. masses --      1.0695                 1.0687                 1.0629
 Frc consts  --      0.4131                 0.3899                 0.3440
 IR Inten    --      8.5997                 1.6504                12.3001

                     13                     14                     15
                      A                      A                      A
 Frequencies --   -640.7122              -618.7932              -534.1502
 Red. masses --      1.1317                 1.2353                 1.2957
 Frc consts  --      0.2737                 0.2787                 0.2178
 IR Inten    --      0.3151                 0.4266                 6.7082

                     16                     17                     18
                      A                      A                      A
 Frequencies --   -440.3622              -320.7510              -264.3965
 Red. masses --      1.2778                 2.4541                 1.0511
 Frc consts  --      0.1460                 0.1488                 0.0433
 IR Inten    --     10.8007                 4.5000                15.5628

                     19                     20                     21
                      A                      A                      A
 Frequencies --   -188.7519              -120.4994                12.1872
 Red. masses --      3.2986                 4.7843                 2.9978
 Frc consts  --      0.0692                 0.0409                 0.0003
 IR Inten    --      4.9649                 1.0496                15.8536

                     22                     23                     24
                      A                      A                      A
 Frequencies --     73.9485               118.9585               148.8189
 Red. masses --      3.5082                 1.6720                 5.3931
 Frc consts  --      0.0113                 0.0139                 0.0704
 IR Inten    --     22.1284                72.2039                 0.7010

                     25                     26                     27
                      A                      A                      A
 Frequencies --    172.2985               210.7848               272.9553
 Red. masses --      5.3757                 4.3661                 4.0604
 Frc consts  --      0.0940                 0.1143                 0.1782
 IR Inten    --     11.1649                 1.0879                10.6416

                     28                     29                     30
                      A                      A                      A
 Frequencies --    317.6459               416.5894               471.3149
 Red. masses --      5.8756                 7.6459                 4.5723
 Frc consts  --      0.3493                 0.7818                 0.5984
 IR Inten    --      0.3780                 0.5528                 3.9040

                     31                     32                     33
                      A                      A                      A
 Frequencies --    483.0968               550.7213               560.0186
 Red. masses --      2.7059                 7.1050                 3.0397
 Frc consts  --      0.3721                 1.2696                 0.5617
 IR Inten    --      3.1035                 1.2453                 3.8268

                     34                     35                     36
                      A                      A                      A
 Frequencies --    580.2504               600.7565               668.1224
 Red. masses --      1.5093                 3.8713                 4.5172
 Frc consts  --      0.2994                 0.8232                 1.1880
 IR Inten    --     16.9779                 0.8884                 9.2691

                     37                     38                     39
                      A                      A                      A
 Frequencies --    684.2114               701.7266               706.1632
 Red. masses --      2.3214                 2.4970                 5.5514
 Frc consts  --      0.6403                 0.7244                 1.6310
 IR Inten    --      0.7286                 2.4105                 1.6817

                     40                     41                     42
                      A                      A                      A
 Frequencies --    736.7478               763.7895               772.1723
 Red. masses --      3.4182                 2.6428                 3.1390
 Frc consts  --      1.0932                 0.9084                 1.1027
 IR Inten    --      5.7836                13.8224                10.4759

                     43                     44                     45
                      A                      A                      A
 Frequencies --    774.4794               785.5554               807.1596
 Red. masses --      1.4683                 4.5552                 4.2010
 Frc consts  --      0.5189                 1.6562                 1.6126
 IR Inten    --      5.1069                 6.4308                 0.6318

                     46                     47                     48
                      A                      A                      A
 Frequencies --    813.7386               831.8433               832.9378
 Red. masses --      2.8992                 2.2899                 2.1099
 Frc consts  --      1.1311                 0.9336                 0.8624
 IR Inten    --      6.8201                 2.7259                 3.5902

                     49                     50                     51
                      A                      A                      A
 Frequencies --    860.5390               874.5000               926.3684
 Red. masses --      2.7441                 4.1051                 5.1207
 Frc consts  --      1.1973                 1.8497                 2.5891
 IR Inten    --      2.3685                20.1840                 7.7342

                     52                     53                     54
                      A                      A                      A
 Frequencies --    933.9514               963.8991              1003.8600
 Red. masses --      1.8779                 3.1864                 3.2754
 Frc consts  --      0.9651                 1.7443                 1.9447
 IR Inten    --      1.3697                38.0783                 7.7713

                     55                     56                     57
                      A                      A                      A
 Frequencies --   1043.2002              1060.5892              1062.3391
 Red. masses --      2.9730                 6.2280                 2.6327
 Frc consts  --      1.9063                 4.1276                 1.7506
 IR Inten    --      8.2040                 0.8526                47.2844

                     58                     59                     60
                      A                      A                      A
 Frequencies --   1094.8162              1110.8167              1119.2132
 Red. masses --      6.7077                 3.7800                 1.1551
 Frc consts  --      4.7370                 2.7480                 0.8525
 IR Inten    --     11.9017                10.3523                15.5585

                     61                     62                     63
                      A                      A                      A
 Frequencies --   1171.7668              1174.6024              1184.1833
 Red. masses --      1.2839                 1.4102                 1.2181
 Frc consts  --      1.0386                 1.1463                 1.0064
 IR Inten    --      0.6260                 5.9364                 2.0001

                     64                     65                     66
                      A                      A                      A
 Frequencies --   1228.6778              1231.0814              1264.7717
 Red. masses --      5.3097                 6.9596                 2.4587
 Frc consts  --      4.7227                 6.2145                 2.3173
 IR Inten    --      8.4971                 2.1786                28.0299

                     67                     68                     69
                      A                      A                      A
 Frequencies --   1291.5506              1348.4987              1385.2995
 Red. masses --      6.8697                 5.4871                 8.1028
 Frc consts  --      6.7516                 5.8789                 9.1616
 IR Inten    --      9.1748                20.2489                 0.7498

                     70                     71                     72
                      A                      A                      A
 Frequencies --   1431.3869              1492.3194              1497.0237
 Red. masses --      6.8031                 8.5612                 8.1785
 Frc consts  --      8.2124                11.2333                10.7990
 IR Inten    --     40.5580                 0.7955                 1.2898

                     73                     74                     75
                      A                      A                      A
 Frequencies --   1505.3999              1532.6393              1672.1287
 Red. masses --      8.9276                 6.1540                 9.9639
 Frc consts  --     11.9204                 8.5170                16.4141
 IR Inten    --     34.0093                82.7859               126.1200

                     76                     77                     78
                      A                      A                      A
 Frequencies --   1686.7090              1715.0650              1737.8600
 Red. masses --     10.9118                10.7552                 9.8749
 Frc consts  --     18.2905                18.6394                17.5716
 IR Inten    --      3.0457                92.7523                 0.3070

                     79                     80                     81
                      A                      A                      A
 Frequencies --   3729.9547              4130.6962              4179.1778
 Red. masses --      1.0798                 1.0884                 1.0584
 Frc consts  --      8.8515                10.9416                10.8913
 IR Inten    --     27.7202                17.4682                28.1161

                     82                     83                     84
                      A                      A                      A
 Frequencies --   4209.2827              4233.8033              4295.7389
 Red. masses --      1.0605                 1.0331                 1.1125
 Frc consts  --     11.0707                10.9104                12.0954
 IR Inten    --      4.1955                12.2541                10.5555

                     85                     86                     87
                      A                      A                      A
 Frequencies --   4324.4463              4422.6985              4429.2469
 Red. masses --      1.1099                 1.1064                 1.1066
 Frc consts  --     12.2296                12.7504                12.7904
 IR Inten    --      0.9945                 7.8413                 2.5666

                     88                     89                     90
                      A                      A                      A
 Frequencies --   4749.9374              4761.3283              4772.3807
 Red. masses --      1.0876                 1.0902                 1.0888
 Frc consts  --     14.4581                14.5616                14.6102
 IR Inten    --      0.4969                 0.6519                 0.6492

                     91                     92                     93
                      A                      A                      A
 Frequencies --   4780.3955              4788.1157              4799.6662
 Red. masses --      1.0903                 1.0928                 1.0933
 Frc consts  --     14.6805                14.7617                14.8392
 IR Inten    --      0.4593                 0.7221                 6.8149

 - Thermochemistry -
 -------------------
 Temperature   298.150 Kelvin.  Pressure   1.00000 Atm.
 Atom     1 has atomic number  7 and mass  14.00307

 Molecular mass:   241.13275 amu.
 Principal axes and moments of inertia in atomic units:
                           1         2         3
     Eigenvalues --  1537.82897********************
           X            1.00000  -0.00099  -0.00050
           Y            0.00099   0.99991  -0.01359
           Z            0.00051   0.01359   0.99991
 This molecule is an asymmetric top.
 Rotational symmetry number  1.
 Warning -- assumption of classical behavior for rotation
           may cause significant error
 Rotational temperatures (Kelvin)      0.05632     0.00825     0.00805
 Rotational constants (GHZ):           1.17356     0.17197     0.16766
   20 imaginary frequencies ignored.
 Zero-point vibrational energy     712262.1 (Joules/Mol)
                                  170.23472 (Kcal/Mol)
 Warning -- explicit consideration of  15 degrees of freedom as
           vibrations may cause significant error
 Vibrational temperatures:     17.53   106.40   171.15   214.12   247.90
          (Kelvin)            303.27   392.72   457.02   599.38   678.12
                              695.07   792.37   805.74   834.85   864.35
                              961.28   984.43  1009.63  1016.01  1060.02
                             1098.92  1110.98  1114.30  1130.24  1161.32
                             1170.79  1196.84  1198.41  1238.12  1258.21
                             1332.84  1343.75  1386.84  1444.33  1500.93
                             1525.95  1528.47  1575.20  1598.22  1610.30
                             1685.91  1689.99  1703.78  1767.79  1771.25
                             1819.72  1858.25  1940.19  1993.14  2059.45
                             2147.11  2153.88  2165.93  2205.13  2405.82
                             2426.80  2467.60  2500.39  5366.57  5943.15
                             6012.90  6056.22  6091.50  6180.61  6221.91
                             6363.28  6372.70  6834.10  6850.49  6866.39
                             6877.92  6889.03  6905.65

 Zero-point correction=                           0.271286 (Hartree/Particle)
 Thermal correction to Energy=                    0.282469
 Thermal correction to Enthalpy=                  0.283413
 Thermal correction to Gibbs Free Energy=         0.231245
 Sum of electronic and zero-point Energies=           -776.233584
 Sum of electronic and thermal Energies=              -776.222401
 Sum of electronic and thermal Enthalpies=            -776.221457
 Sum of electronic and thermal Free Energies=         -776.273625

                     E (Thermal)             CV                S
                      KCal/Mol        Cal/Mol-Kelvin    Cal/Mol-Kelvin
 Total                  177.252             45.318            109.798
 Electronic               0.000              0.000              0.000
 Translational            0.889              2.981             42.342
 Rotational               0.889              2.981             33.518
 Vibrational            175.475             39.356             33.939
 Vibration     1          0.593              1.987              7.618
 Vibration     2          0.599              1.966              4.045
 Vibration     3          0.609              1.934              3.117
 Vibration     4          0.618              1.904              2.687
 Vibration     5          0.626              1.877              2.410
 Vibration     6          0.643              1.824              2.037
 Vibration     7          0.676              1.723              1.577
 Vibration     8          0.704              1.640              1.322
 Vibration     9          0.780              1.434              0.904
 Vibration    10          0.828              1.314              0.734
 Vibration    11          0.839              1.288              0.702
 Vibration    12          0.906              1.138              0.543
 Vibration    13          0.916              1.118              0.524
 Vibration    14          0.937              1.074              0.485
 Vibration    15          0.959              1.030              0.448

 1\1\GINC-JST042\Freq\RPBE1PBE\def2SVP\C13H15N5\LAPLAZA\04-Mar-2023\0\\
 #p pop=(regular,nbo,savenbos) freq=noraman def2svp empiricaldispersion
 =gd3bj output=wfx pbe1pbe\\ILATIA_Complex_7_Ligand_1_NN_Cu_oriented\\0
 ,1\N,1.19253601,-1.56417123,0.\N,1.37938678,-3.79191999,0.07302216\C,0
 .59030948,-2.69932743,0.05890329\C,2.78569786,-3.3246615,0.18162026\H,
 3.36752288,-3.7708605,-0.48407023\C,2.63704477,-1.81849908,-0.11498196
 \H,3.14303083,-1.27610335,0.55547427\C,3.11484247,-1.52609214,-1.48405
 021\H,2.59895518,-2.0533467,-2.12992383\H,4.0637871,-1.76035731,-1.555

 Normal termination of Gaussian 16 at Sat Mar  4 12:07:39 2023.
