 Gaussian 16, Revision C.01,
 Gaussian 16:  ES64L-G16RevC.01  3-Jul-2019

 ----------------------------------------------------------------------
 #p pop=(regular,nbo,savenbos) freq=noraman def2svp empiricaldispersion
 =gd3bj output=wfx pbe1pbe
 ----------------------------------------------------------------------

 ----------------------------------------
 ILATIA_Complex_9_Ligand_0_NN_Cu_oriented
 ----------------------------------------
 Symbolic Z-matrix:
 Charge =  0 Multiplicity = 1

                         Standard orientation:
 ---------------------------------------------------------------------
 Center     Atomic      Atomic             Coordinates (Angstroms)
 Number     Number       Type             X           Y           Z
 ---------------------------------------------------------------------
      1          7           0        0.728044   -1.543471    0.487715
      2          7           0       -0.472063   -1.906154    0.111341
      3          7           0       -0.824129   -1.035867   -0.854306
      4          6           0        0.134773   -0.126472   -1.084295
      5          1           0        0.115622    0.586800   -1.712594
      6          6           0        1.141628   -0.444901   -0.227107
      7          6           0       -2.201292   -1.085737   -1.381620
      8          1           0       -2.518680   -2.023484   -1.383870
      9          1           0       -2.207950   -0.755693   -2.314933
     10          6           0       -3.131622   -0.243578   -0.543886
     11          6           0       -3.539579    0.983516   -0.978099
     12          1           0       -3.277107    1.299256   -1.834867
     13          6           0       -4.351446    1.776986   -0.148362
     14          1           0       -4.626859    2.637502   -0.443398
     15          6           0       -4.740709    1.333018    1.051222
     16          1           0       -5.297031    1.875156    1.597346
     17          6           0       -4.345016    0.111223    1.493641
     18          1           0       -4.636979   -0.195838    2.344291
     19          6           0       -3.533955   -0.683382    0.732397
     20          1           0       -3.241892   -1.525319    1.061294
     21          7           0        3.061137   -0.623199    1.105925
     22          7           0        3.094209    1.099471   -0.316840
     23          6           0        2.458054    0.043318    0.154520
     24          6           0        4.435002    1.117991    0.227537
     25          1           0        4.661886    2.020035    0.593158
     26          6           0        4.335868    0.062044    1.365432
     27          1           0        5.095197   -0.574802    1.324888
     28          1           0        4.330325    0.498216    2.253847
     29          6           0        5.453410    0.675570   -0.813381
     30          1           0        5.363452   -0.287923   -0.971004
     31          1           0        6.358078    0.870358   -0.489229
     32          1           0        5.295737    1.159566   -1.650976
     33          1           0        2.785118    1.363142   -1.198789
 ---------------------------------------------------------------------

 SCF Done:  E(RPBE1PBE) =  -776.495167003     A.U. after   15 cycles

 The electronic state is 1-A.
 Alpha  occ. eigenvalues --  -14.48515 -14.43880 -14.40025 -14.39439 -14.33128
 Alpha  occ. eigenvalues --  -10.28314 -10.27898 -10.27227 -10.25872 -10.25709
 Alpha  occ. eigenvalues --  -10.25139 -10.23185 -10.22692 -10.22596 -10.22252
 Alpha  occ. eigenvalues --  -10.21956 -10.21810 -10.19323  -1.12200  -1.01280
 Alpha  occ. eigenvalues --   -0.93748  -0.89707  -0.86373  -0.84397  -0.81928
 Alpha  occ. eigenvalues --   -0.80184  -0.78589  -0.74986  -0.71783  -0.66243
 Alpha  occ. eigenvalues --   -0.65191  -0.64921  -0.63484  -0.62168  -0.59180
 Alpha  occ. eigenvalues --   -0.58036  -0.57082  -0.54010  -0.51911  -0.50585
 Alpha  occ. eigenvalues --   -0.50023  -0.49130  -0.47814  -0.47113  -0.46114
 Alpha  occ. eigenvalues --   -0.44777  -0.44437  -0.43950  -0.41883  -0.40828
 Alpha  occ. eigenvalues --   -0.39758  -0.39410  -0.38140  -0.37640  -0.37215
 Alpha  occ. eigenvalues --   -0.36504  -0.34187  -0.30235  -0.28122  -0.27803
 Alpha  occ. eigenvalues --   -0.27375  -0.27083  -0.23495  -0.20959
 Alpha virt. eigenvalues --   -0.01667  -0.01336   0.00233   0.01211   0.06168
 Alpha virt. eigenvalues --    0.07628   0.09491   0.10242   0.11653   0.12585
 Alpha virt. eigenvalues --    0.13419   0.14042   0.14180   0.14242   0.14890

 Mulliken charges:
               1
     1  N   -0.154576
     2  N   -0.018234
     3  N   -0.253977
     4  C    0.169642
     5  H   -0.080414
     6  C    0.037868
     7  C    0.429515
     8  H    0.007344
     9  H   -0.019464
    10  C   -0.147987
    11  C    0.059211
    12  H   -0.097451
    13  C    0.087913
    14  H   -0.075643
    15  C    0.094739
    16  H   -0.075502
    17  C    0.089527
    18  H   -0.071346
    19  C    0.102335
    20  H   -0.077930
    21  N   -0.310028
    22  N   -0.165004
    23  C    0.043517
    24  C   -0.112399
    25  H   -0.010209
    26  C    0.321036
    27  H   -0.023528
    28  H   -0.007406
    29  C    0.182763
    30  H   -0.003426
    31  H   -0.001278
    32  H   -0.018808
    33  H    0.099198
 Sum of Mulliken charges =  -0.00000

 Dipole moment (field-independent basis, Debye):
    X=             -1.3509    Y=              4.4283    Z=             -4.4486  Tot=              6.4207
 Quadrupole moment (field-independent basis, Debye-Ang):
   XX=            -87.2832   YY=           -107.3058   ZZ=            -98.1422
   XY=              6.9987   XZ=             -4.8914   YZ=              2.7729

  Exact polarizability:     193.705      -5.849     128.865       2.049     -11.919     133.070
 Approx polarizability:     230.405     -13.894     219.580       8.976     -37.766     225.610

 Summary of Natural Population Analysis:

                                       Natural Population
                Natural  -----------------------------------------------
    Atom  No    Charge         Core      Valence    Rydberg      Total
 -----------------------------------------------------------------------
      N    1   -0.22203      1.99942     5.20013    0.02248     7.22203
      N    2   -0.07362      1.99953     5.04277    0.03131     7.07362
      N    3   -0.20307      1.99918     5.18570    0.01818     7.20307
      C    4   -0.00480      1.99899     3.98703    0.01878     6.00480
      H    5    0.18792      0.00000     0.80999    0.00210     0.81208
      C    6    0.04259      1.99904     3.93227    0.02609     5.95741
      C    7   -0.16395      1.99898     4.14379    0.02118     6.16395
      H    8    0.22172      0.00000     0.77485    0.00343     0.77828
      H    9    0.20250      0.00000     0.79444    0.00306     0.79750
      C   10   -0.05077      1.99898     4.03628    0.01551     6.05077
      C   11   -0.18634      1.99896     4.17253    0.01486     6.18634
      H   12    0.17800      0.00000     0.81895    0.00305     0.82200
      C   13   -0.16182      1.99908     4.14829    0.01444     6.16182
      H   14    0.17940      0.00000     0.81752    0.00309     0.82060
      C   15   -0.17942      1.99906     4.16620    0.01415     6.17942
      H   16    0.18194      0.00000     0.81483    0.00322     0.81806
      C   17   -0.16054      1.99908     4.14723    0.01422     6.16054
      H   18    0.18217      0.00000     0.81474    0.00309     0.81783
      C   19   -0.16145      1.99901     4.14697    0.01547     6.16145
      H   20    0.19115      0.00000     0.80539    0.00346     0.80885
      N   21   -0.52936      1.99938     5.51514    0.01483     7.52936
      N   22   -0.65807      1.99910     5.64439    0.01459     7.65807
      C   23    0.41518      1.99909     3.55102    0.03471     5.58482
      C   24   -0.00081      1.99910     3.98423    0.01748     6.00081
      H   25    0.18505      0.00000     0.81138    0.00356     0.81495
      C   26   -0.17334      1.99909     4.15813    0.01613     6.17334
      H   27    0.18512      0.00000     0.81168    0.00320     0.81488
      H   28    0.18475      0.00000     0.81149    0.00375     0.81525
      C   29   -0.57180      1.99918     4.56397    0.00866     6.57180
      H   30    0.19458      0.00000     0.80264    0.00278     0.80542
      H   31    0.19647      0.00000     0.80080    0.00273     0.80353
      H   32    0.18743      0.00000     0.80956    0.00301     0.81257
      H   33    0.38519      0.00000     0.60918    0.00563     0.61481
 =======================================================================
   * Total *   -0.00000     35.98427    91.63350    0.38223   128.00000

 ******   22 imaginary frequencies (negative Signs) ******

                      1                      2                      3
                      A                      A                      A
 Frequencies --  -1266.6393             -1222.9376             -1208.9119
 Red. masses --      1.0816                 1.0101                 1.0545
 Frc consts  --      1.0224                 0.8901                 0.9080
 IR Inten    --     79.3642                 0.3760                27.2211

                      4                      5                      6
                      A                      A                      A
 Frequencies --  -1161.4665             -1101.6591             -1024.1416
 Red. masses --      1.0424                 1.0254                 1.0110
 Frc consts  --      0.8285                 0.7332                 0.6247
 IR Inten    --      0.4483                 1.7840                 0.3321

                      7                      8                      9
                      A                      A                      A
 Frequencies --   -925.2579              -883.5247              -862.1663
 Red. masses --      1.0254                 1.0496                 1.0672
 Frc consts  --      0.5172                 0.4827                 0.4674
 IR Inten    --      0.3256                 0.8245                 1.4901

                     10                     11                     12
                      A                      A                      A
 Frequencies --   -820.2450              -795.9480              -719.9465
 Red. masses --      1.0632                 1.0663                 1.0692
 Frc consts  --      0.4215                 0.3980                 0.3265
 IR Inten    --      5.2717                 2.3405                70.7633

                     13                     14                     15
                      A                      A                      A
 Frequencies --   -703.5021              -623.8567              -595.3717
 Red. masses --      1.0787                 1.2431                 1.1005
 Frc consts  --      0.3146                 0.2850                 0.2298
 IR Inten    --     77.3775                 1.2489                 1.0612

                     16                     17                     18
                      A                      A                      A
 Frequencies --   -549.1416              -425.7713              -332.6248
 Red. masses --      1.2892                 1.4102                 2.3731
 Frc consts  --      0.2290                 0.1506                 0.1547
 IR Inten    --      8.7937                 5.8867                 0.8965

                     19                     20                     21
                      A                      A                      A
 Frequencies --   -252.9133              -185.3672              -105.8787
 Red. masses --      1.0526                 3.3234                 4.5702
 Frc consts  --      0.0397                 0.0673                 0.0302
 IR Inten    --     15.1879                 0.6228                 2.6092

                     22                     23                     24
                      A                      A                      A
 Frequencies --    -42.3715               108.9140               129.6417
 Red. masses --      3.6910                 5.8571                 3.7838
 Frc consts  --      0.0039                 0.0409                 0.0375
 IR Inten    --      9.6388                 1.1324                 0.7463

                     25                     26                     27
                      A                      A                      A
 Frequencies --    165.4394               184.3311               266.1180
 Red. masses --      8.4225                 5.1349                 5.6359
 Frc consts  --      0.1358                 0.1028                 0.2352
 IR Inten    --      0.9144                 1.1899                 1.2329

                     28                     29                     30
                      A                      A                      A
 Frequencies --    320.7537               402.8428               470.9620
 Red. masses --      6.8332                 8.1640                 5.1026
 Frc consts  --      0.4142                 0.7806                 0.6668
 IR Inten    --      0.4413                 0.8837                 9.0000

                     31                     32                     33
                      A                      A                      A
 Frequencies --    495.5454               543.3466               557.3193
 Red. masses --      2.2166                 5.9232                 3.3477
 Frc consts  --      0.3207                 1.0303                 0.6126
 IR Inten    --      4.3417                 0.8220                 1.8273

                     34                     35                     36
                      A                      A                      A
 Frequencies --    579.4655               598.4729               640.1899
 Red. masses --      1.6082                 3.5578                 3.9040
 Frc consts  --      0.3182                 0.7508                 0.9427
 IR Inten    --     10.0764                 1.4368                 7.1866

                     37                     38                     39
                      A                      A                      A
 Frequencies --    677.1263               688.7779               694.0484
 Red. masses --      2.4214                 4.1265                 3.1468
 Frc consts  --      0.6541                 1.1534                 0.8931
 IR Inten    --      2.6266                 3.5330                 0.9841

                     40                     41                     42
                      A                      A                      A
 Frequencies --    739.9306               744.5446               767.8369
 Red. masses --      3.3837                 1.2315                 3.9929
 Frc consts  --      1.0915                 0.4022                 1.3870
 IR Inten    --      5.1269                15.9323                 7.9911

                     43                     44                     45
                      A                      A                      A
 Frequencies --    776.1425               787.8646               807.7263
 Red. masses --      4.9045                 2.7380                 3.9487
 Frc consts  --      1.7407                 1.0014                 1.5178
 IR Inten    --      0.4725                 6.9184                 4.1897

                     46                     47                     48
                      A                      A                      A
 Frequencies --    810.7841               827.4692               832.6329
 Red. masses --      2.9879                 2.5455                 3.4233
 Frc consts  --      1.1572                 1.0269                 1.3983
 IR Inten    --      1.5088                 4.1709                 1.4142

                     49                     50                     51
                      A                      A                      A
 Frequencies --    846.1323               879.3307               914.2388
 Red. masses --      2.3315                 3.8540                 2.5909
 Frc consts  --      0.9835                 1.7558                 1.2759
 IR Inten    --      5.7086                18.6888                 3.1775

                     52                     53                     54
                      A                      A                      A
 Frequencies --    924.6820               961.5822              1013.7216
 Red. masses --      3.9356                 1.7103                 4.1011
 Frc consts  --      1.9827                 0.9317                 2.4831
 IR Inten    --     13.9284                27.6545                 4.1645

                     55                     56                     57
                      A                      A                      A
 Frequencies --   1038.9323              1056.6532              1074.5097
 Red. masses --      5.7716                 6.3367                 4.4728
 Frc consts  --      3.6705                 4.1685                 3.0426
 IR Inten    --     27.4562                 0.0459                 4.8063

                     58                     59                     60
                      A                      A                      A
 Frequencies --   1075.4875              1111.9512              1120.6867
 Red. masses --      1.7042                 3.0860                 1.1510
 Frc consts  --      1.1614                 2.2481                 0.8517
 IR Inten    --     32.3240                 7.3679                15.7089

                     61                     62                     63
                      A                      A                      A
 Frequencies --   1124.8967              1150.6104              1163.0935
 Red. masses --      1.7931                 1.3400                 1.2748
 Frc consts  --      1.3368                 1.0452                 1.0160
 IR Inten    --      1.8165                10.2700                 5.1053

                     64                     65                     66
                      A                      A                      A
 Frequencies --   1199.9510              1228.4484              1240.2909
 Red. masses --      2.3093                 7.3198                 6.3143
 Frc consts  --      1.9591                 6.5082                 5.7230
 IR Inten    --      9.5546                 1.3056                13.5414

                     67                     68                     69
                      A                      A                      A
 Frequencies --   1254.5656              1319.0030              1357.9073
 Red. masses --      4.4324                 8.0113                 6.9742
 Frc consts  --      4.1104                 8.2119                 7.5767
 IR Inten    --      5.0109                 1.5175                51.5786

                     70                     71                     72
                      A                      A                      A
 Frequencies --   1391.5883              1466.2337              1513.3971
 Red. masses --      7.7920                 8.2880                 8.5925
 Frc consts  --      8.8903                10.4979                11.5952
 IR Inten    --      1.1323                 1.4886               110.7370

                     73                     74                     75
                      A                      A                      A
 Frequencies --   1542.2180              1548.2573              1685.2486
 Red. masses --      8.0718                 8.6876                10.3169
 Frc consts  --     11.3112                12.2697                17.2634
 IR Inten    --     33.9696                 1.1777                94.4374

                     76                     77                     78
                      A                      A                      A
 Frequencies --   1715.8493              1755.6647              1795.9953
 Red. masses --     10.3786                10.8674                10.0294
 Frc consts  --     18.0031                19.7360                19.0606
 IR Inten    --      1.8264               148.1262                 0.1722

                     79                     80                     81
                      A                      A                      A
 Frequencies --   4136.2064              4161.5971              4176.1836
 Red. masses --      1.0886                 1.0772                 1.0594
 Frc consts  --     10.9729                10.9913                10.8862
 IR Inten    --     18.3054                18.7951                28.7828

                     82                     83                     84
                      A                      A                      A
 Frequencies --   4202.9872              4232.4228              4292.9216
 Red. masses --      1.0603                 1.0324                 1.1112
 Frc consts  --     11.0356                10.8961                12.0659
 IR Inten    --      5.4953                 8.1317                 6.8842

                     85                     86                     87
                      A                      A                      A
 Frequencies --   4318.3392              4425.0707              4427.4133
 Red. masses --      1.1101                 1.1067                 1.1071
 Frc consts  --     12.1967                12.7682                12.7860
 IR Inten    --      0.7000                 4.4178                 2.5655

                     88                     89                     90
                      A                      A                      A
 Frequencies --   4754.9817              4761.2242              4768.2033
 Red. masses --      1.0865                 1.0885                 1.0902
 Frc consts  --     14.4730                14.5383                14.6039
 IR Inten    --      0.1247                 0.8138                 1.2436

                     91                     92                     93
                      A                      A                      A
 Frequencies --   4775.4363              4779.7353              4784.5380
 Red. masses --      1.0913                 1.0940                 1.0934
 Frc consts  --     14.6625                14.7260                14.7466
 IR Inten    --      0.1061                 1.2022                 5.9139

 - Thermochemistry -
 -------------------
 Temperature   298.150 Kelvin.  Pressure   1.00000 Atm.
 Atom     1 has atomic number  7 and mass  14.00307

 Molecular mass:   241.13275 amu.
 Principal axes and moments of inertia in atomic units:
                           1         2         3
     Eigenvalues --  1653.31090********************
           X            0.99999   0.00369  -0.00310
           Y           -0.00375   0.99979  -0.02006
           Z            0.00303   0.02007   0.99979
 This molecule is an asymmetric top.
 Rotational symmetry number  1.
 Warning -- assumption of classical behavior for rotation
           may cause significant error
 Rotational temperatures (Kelvin)      0.05239     0.00846     0.00827
 Rotational constants (GHZ):           1.09159     0.17627     0.17231
   22 imaginary frequencies ignored.
 Zero-point vibrational energy     712296.1 (Joules/Mol)
                                  170.24286 (Kcal/Mol)
 Warning -- explicit consideration of  13 degrees of freedom as
           vibrations may cause significant error
 Vibrational temperatures:    156.70   186.53   238.03   265.21   382.88
          (Kelvin)            461.49   579.60   677.61   712.98   781.75
                              801.86   833.72   861.07   921.09   974.23
                              991.00   998.58  1064.60  1071.23  1104.75
                             1116.70  1133.56  1162.14  1166.54  1190.54
                             1197.97  1217.40  1265.16  1315.39  1330.41
                             1383.50  1458.52  1494.79  1520.29  1545.98
                             1547.39  1599.85  1612.42  1618.48  1655.47
                             1673.43  1726.46  1767.46  1784.50  1805.04
                             1897.75  1953.73  2002.19  2109.58  2177.44
                             2218.91  2227.60  2424.70  2468.72  2526.01
                             2584.04  5951.08  5987.61  6008.60  6047.16
                             6089.51  6176.56  6213.13  6366.69  6370.06
                             6841.36  6850.34  6860.38  6870.79  6876.97
                             6883.88

 Zero-point correction=                           0.271299 (Hartree/Particle)
 Thermal correction to Energy=                    0.280957
 Thermal correction to Enthalpy=                  0.281902
 Thermal correction to Gibbs Free Energy=         0.234798
 Sum of electronic and zero-point Energies=           -776.223868
 Sum of electronic and thermal Energies=              -776.214210
 Sum of electronic and thermal Enthalpies=            -776.213265
 Sum of electronic and thermal Free Energies=         -776.260369

                     E (Thermal)             CV                S
                      KCal/Mol        Cal/Mol-Kelvin    Cal/Mol-Kelvin
 Total                  176.303             41.813             99.138
 Electronic               0.000              0.000              0.000
 Translational            0.889              2.981             42.342
 Rotational               0.889              2.981             33.538
 Vibrational            174.526             35.851             23.259
 Vibration     1          0.606              1.942              3.288
 Vibration     2          0.612              1.924              2.951
 Vibration     3          0.624              1.885              2.487
 Vibration     4          0.631              1.861              2.284
 Vibration     5          0.672              1.735              1.621
 Vibration     6          0.706              1.634              1.306
 Vibration     7          0.768              1.464              0.952
 Vibration     8          0.828              1.314              0.735
 Vibration     9          0.851              1.260              0.669
 Vibration    10          0.898              1.154              0.558
 Vibration    11          0.913              1.124              0.529
 Vibration    12          0.936              1.076              0.486
 Vibration    13          0.956              1.035              0.452

 1\1\GINC-JST373\Freq\RPBE1PBE\def2SVP\C13H15N5\LAPLAZA\04-Mar-2023\0\\
 #p pop=(regular,nbo,savenbos) freq=noraman def2svp empiricaldispersion
 =gd3bj output=wfx pbe1pbe\\ILATIA_Complex_9_Ligand_0_NN_Cu_oriented\\0
 ,1\N,-1.39798602,1.45047195,0.\N,-2.70488366,1.51827476,0.02958101\N,-
 2.99558765,2.83258815,0.07313615\C,-1.88939695,3.59132909,0.07949842\H
 ,-1.84004898,4.54026736,0.1105343\C,-0.85307317,2.711842,0.02988187\C,
 -4.40039727,3.23864977,0.26998117\H,-4.99665902,2.58733244,-0.17764144
 \H,-4.5470352,4.12597441,-0.1437813\C,-4.74303967,3.30557539,1.7378585

 Normal termination of Gaussian 16 at Sat Mar  4 12:10:45 2023.
