 Gaussian 16, Revision C.01,
 Gaussian 16:  ES64L-G16RevC.01  3-Jul-2019

 ----------------------------------------------------------------------
 #p pop=(regular,nbo,savenbos) freq=noraman def2svp empiricaldispersion
 =gd3bj output=wfx pbe1pbe
 ----------------------------------------------------------------------

 ----------------------------------------
 JAHZUQ_Complex_1_Ligand_0_ON_Cu_oriented
 ----------------------------------------
 Symbolic Z-matrix:
 Charge =  0 Multiplicity = 1

                         Standard orientation:
 ---------------------------------------------------------------------
 Center     Atomic      Atomic             Coordinates (Angstroms)
 Number     Number       Type             X           Y           Z
 ---------------------------------------------------------------------
      1         15           0       -2.446765   -0.042960   -0.317907
      2          7           0        2.955092    0.853352   -0.382493
      3          7           0        1.327443   -0.866193   -0.460829
      4          1           0        1.225726   -1.703839   -0.627230
      5          7           0       -0.962216   -0.795850   -0.429036
      6          1           0       -0.935468   -1.655359   -0.448976
      7          8           0        0.203433    1.135487   -0.555489
      8          8           0       -2.829126    0.704804   -1.502182
      9          8           0       -3.293558   -1.302872    0.004922
     10          8           0       -2.402298    0.801741    0.984910
     11          6           0        4.801256   -0.978774    0.606213
     12          1           0        5.423559   -1.595314    0.917400
     13          6           0        3.518993   -1.384441    0.272613
     14          1           0        3.267256   -2.274526    0.360929
     15          6           0        2.620317   -0.443400   -0.193695
     16          6           0        0.207315   -0.105515   -0.488993
     17          6           0       -4.325843   -1.450251    0.885935
     18          1           0       -4.245334   -2.294700    1.334477
     19          6           0       -2.507131    2.247981    0.987865
     20          1           0       -3.391729    2.503713    1.259593
     21          1           0       -2.333941    2.583697    0.104837
     22          1           0       -1.866686    2.614688    1.600448
     23          6           0        4.200922    1.228664   -0.011670
     24          1           0        4.433121    2.125902   -0.086891
     25          6           0        5.138104    0.351817    0.468727
     26          1           0        5.989346    0.649924    0.698753
     27          1           0       -5.159053   -1.417779    0.410393
     28          1           0       -4.298761   -0.740916    1.532130
 ---------------------------------------------------------------------

 SCF Done:  E(RPBE1PBE) =  -1116.75240883     A.U. after   14 cycles

 The electronic state is 1-A.
 Alpha  occ. eigenvalues --  -77.33337 -19.24139 -19.23514 -19.16114 -19.13743
 Alpha  occ. eigenvalues --  -14.42803 -14.40534 -14.38418 -10.36253 -10.31722
 Alpha  occ. eigenvalues --  -10.26115 -10.25545 -10.24835 -10.24370 -10.23559
 Alpha  occ. eigenvalues --  -10.22379  -6.72503  -4.86735  -4.86609  -4.86455
 Alpha  occ. eigenvalues --   -1.12633  -1.07499  -1.06431  -0.99641  -0.97127
 Alpha  occ. eigenvalues --   -0.95498  -0.93575  -0.83715  -0.80215  -0.78485
 Alpha  occ. eigenvalues --   -0.75560  -0.70266  -0.68365  -0.64588  -0.62632
 Alpha  occ. eigenvalues --   -0.62141  -0.59665  -0.55905  -0.55346  -0.54087
 Alpha  occ. eigenvalues --   -0.52173  -0.50938  -0.50439  -0.49235  -0.48648
 Alpha  occ. eigenvalues --   -0.48288  -0.46857  -0.43946  -0.42648  -0.41856
 Alpha  occ. eigenvalues --   -0.41316  -0.40903  -0.37568  -0.37093  -0.34977
 Alpha  occ. eigenvalues --   -0.33908  -0.33624  -0.30497  -0.30313  -0.29173
 Alpha  occ. eigenvalues --   -0.28407  -0.27402  -0.25414  -0.24619
 Alpha virt. eigenvalues --   -0.02940  -0.01187   0.05429   0.06022   0.08344
 Alpha virt. eigenvalues --    0.09992   0.10964   0.11742   0.12329   0.12752
 Alpha virt. eigenvalues --    0.14313   0.15060   0.15761   0.16351   0.16764

 Mulliken charges:
               1
     1  P    1.008098
     2  N   -0.165785
     3  N   -0.037978
     4  H    0.049394
     5  N   -0.259753
     6  H    0.053675
     7  O   -0.290985
     8  O   -0.479718
     9  O   -0.484899
    10  O   -0.520188
    11  C    0.170594
    12  H   -0.087326
    13  C    0.063633
    14  H   -0.115511
    15  C    0.080263
    16  C    0.253984
    17  C    0.366207
    18  H   -0.014551
    19  C    0.368557
    20  H   -0.015403
    21  H    0.010849
    22  H   -0.003394
    23  C    0.212951
    24  H   -0.070874
    25  C    0.022946
    26  H   -0.083431
    27  H   -0.007618
    28  H   -0.023735
 Sum of Mulliken charges =  -0.00000

 Dipole moment (field-independent basis, Debye):
    X=              1.0937    Y=             -4.8998    Z=              4.4022  Tot=              6.6771
 Quadrupole moment (field-independent basis, Debye-Ang):
   XX=            -75.2966   YY=            -86.2485   ZZ=           -103.5075
   XY=             -0.8580   XZ=             -9.0934   YZ=              5.7180

  Exact polarizability:     163.137       5.194     116.364       9.542      -4.057      75.838
 Approx polarizability:     195.865       7.603     189.412      20.318     -12.371     112.894

 Summary of Natural Population Analysis:

                                       Natural Population
                Natural  -----------------------------------------------
    Atom  No    Charge         Core      Valence    Rydberg      Total
 -----------------------------------------------------------------------
      P    1    2.53955      9.99820     2.31704    0.14520    12.46045
      N    2   -0.47827      1.99930     5.46373    0.01524     7.47827
      N    3   -0.61116      1.99901     5.59688    0.01528     7.61116
      H    4    0.34614      0.00000     0.64825    0.00561     0.65386
      N    5   -0.95774      1.99907     5.93947    0.01920     7.95774
      H    6    0.35963      0.00000     0.63548    0.00489     0.64037
      O    7   -0.63706      1.99975     6.62865    0.00865     8.63706
      O    8   -1.05878      1.99979     7.05285    0.00614     9.05878
      O    9   -0.86229      1.99962     6.85401    0.00867     8.86229
      O   10   -0.88175      1.99967     6.87479    0.00730     8.88175
      C   11   -0.11680      1.99913     4.10391    0.01376     6.11680
      H   12    0.17134      0.00000     0.82581    0.00284     0.82866
      C   13   -0.24686      1.99900     4.23396    0.01389     6.24686
      H   14    0.17440      0.00000     0.82245    0.00315     0.82560
      C   15    0.42277      1.99902     3.55201    0.02620     5.57723
      C   16    0.86728      1.99942     3.08588    0.04742     5.13272
      C   17   -0.12038      1.99904     4.10904    0.01230     6.12038
      H   18    0.15969      0.00000     0.83798    0.00233     0.84031
      C   19   -0.10754      1.99888     4.09815    0.01051     6.10754
      H   20    0.15270      0.00000     0.84495    0.00234     0.84730
      H   21    0.17991      0.00000     0.81624    0.00385     0.82009
      H   22    0.16515      0.00000     0.83256    0.00229     0.83485
      C   23    0.12749      1.99909     3.85302    0.02040     5.87251
      H   24    0.15233      0.00000     0.84467    0.00300     0.84767
      C   25   -0.23184      1.99911     4.21967    0.01306     6.23184
      H   26    0.17513      0.00000     0.82167    0.00320     0.82487
      H   27    0.15924      0.00000     0.83818    0.00258     0.84076
      H   28    0.15772      0.00000     0.83836    0.00392     0.84228
 =======================================================================
   * Total *   -0.00000     39.98711    87.58967    0.42322   128.00000

 ******   19 imaginary frequencies (negative Signs) ******

                      1                      2                      3
                      A                      A                      A
 Frequencies --  -1931.7056             -1870.4989             -1459.8743
 Red. masses --      1.0709                 1.0780                 1.0818
 Frc consts  --      2.3545                 2.2223                 1.3583
 IR Inten    --     18.3565               160.5760                59.5154

                      4                      5                      6
                      A                      A                      A
 Frequencies --  -1423.3379             -1414.3324             -1349.4159
 Red. masses --      1.0088                 1.0106                 1.0599
 Frc consts  --      1.2041                 1.1910                 1.1371
 IR Inten    --      0.0921                 0.0685                 0.0206

                      7                      8                      9
                      A                      A                      A
 Frequencies --  -1289.5587             -1236.5570             -1201.4454
 Red. masses --      1.0277                 1.0533                 1.0350
 Frc consts  --      1.0070                 0.9489                 0.8802
 IR Inten    --      0.1419                29.6226                 1.2214

                     10                     11                     12
                      A                      A                      A
 Frequencies --  -1042.0017              -949.2982              -872.7104
 Red. masses --      1.0843                 1.0859                 1.1343
 Frc consts  --      0.6937                 0.5765                 0.5090
 IR Inten    --     13.7755                 0.7801                 5.5778

                     13                     14                     15
                      A                      A                      A
 Frequencies --   -844.0402              -815.3713              -811.7647
 Red. masses --      1.1008                 1.1689                 1.1146
 Frc consts  --      0.4621                 0.4579                 0.4327
 IR Inten    --     11.6597                 7.8002                20.4732

                     16                     17                     18
                      A                      A                      A
 Frequencies --   -786.3676              -769.1363              -687.8882
 Red. masses --      1.1573                 1.0937                 1.1021
 Frc consts  --      0.4216                 0.3812                 0.3073
 IR Inten    --      6.6406                10.6634                 8.2602

                     19                     20                     21
                      A                      A                      A
 Frequencies --   -103.9348                80.7592               119.0270
 Red. masses --      8.6310                 8.8481                10.1018
 Frc consts  --      0.0549                 0.0340                 0.0843
 IR Inten    --      2.2197                 0.5772                 0.8167

                     22                     23                     24
                      A                      A                      A
 Frequencies --    126.5249               166.7266               226.4695
 Red. masses --      8.5185                 9.4206                 8.3697
 Frc consts  --      0.0803                 0.1543                 0.2529
 IR Inten    --      0.9945                 1.3993                 0.4456

                     25                     26                     27
                      A                      A                      A
 Frequencies --    258.3922               285.2561               315.3144
 Red. masses --      8.2548                 9.5023                10.5029
 Frc consts  --      0.3247                 0.4556                 0.6152
 IR Inten    --      1.8985                 0.9332                 7.8125

                     28                     29                     30
                      A                      A                      A
 Frequencies --    319.0085               378.7109               400.1669
 Red. masses --     10.5970                 9.1058                 9.9013
 Frc consts  --      0.6354                 0.7695                 0.9342
 IR Inten    --      1.6870                45.7840                38.2100

                     31                     32                     33
                      A                      A                      A
 Frequencies --    448.6800               529.4682               551.2898
 Red. masses --      8.7737                10.6934                 4.8354
 Frc consts  --      1.0407                 1.7662                 0.8658
 IR Inten    --     69.5729                 1.6215                 5.0041

                     34                     35                     36
                      A                      A                      A
 Frequencies --    574.9737               588.3901               590.6403
 Red. masses --      3.9088                 5.0820                 4.9395
 Frc consts  --      0.7614                 1.0366                 1.0153
 IR Inten    --      7.3716                28.9891                37.9771

                     37                     38                     39
                      A                      A                      A
 Frequencies --    643.1956               651.4982               656.1296
 Red. masses --      3.6909                 2.7894                 5.8959
 Frc consts  --      0.8996                 0.6976                 1.4955
 IR Inten    --     20.1323                25.5799                 7.9758

                     40                     41                     42
                      A                      A                      A
 Frequencies --    710.8991               737.0748               792.3596
 Red. masses --      5.7090                 4.9007                 8.5904
 Frc consts  --      1.6999                 1.5687                 3.1777
 IR Inten    --     27.6533                 5.8003                14.9072

                     43                     44                     45
                      A                      A                      A
 Frequencies --    800.6919               811.3764               840.7709
 Red. masses --      2.0833                 3.2068                 6.1276
 Frc consts  --      0.7869                 1.2438                 2.5521
 IR Inten    --     19.8768                30.4635                 5.1489

                     46                     47                     48
                      A                      A                      A
 Frequencies --    871.6844               915.3149               948.4191
 Red. masses --      3.4006                 6.4583                 4.2097
 Frc consts  --      1.5224                 3.1879                 2.2310
 IR Inten    --     37.4420               102.7914                70.2277

                     49                     50                     51
                      A                      A                      A
 Frequencies --   1006.0891              1029.4180              1039.1326
 Red. masses --      7.4379                 7.7297                 1.0826
 Frc consts  --      4.4358                 4.8261                 0.6887
 IR Inten    --     72.2772                 1.3611                31.9686

                     52                     53                     54
                      A                      A                      A
 Frequencies --   1055.7879              1083.2641              1100.8392
 Red. masses --      1.1113                 1.0391                 1.1260
 Frc consts  --      0.7298                 0.7184                 0.8040
 IR Inten    --     29.0001                18.0005                32.7846

                     55                     56                     57
                      A                      A                      A
 Frequencies --   1144.9195              1228.1035              1274.5148
 Red. masses --      9.3880                 4.6640                 8.4367
 Frc consts  --      7.2506                 4.1445                 8.0744
 IR Inten    --    103.5845               310.5372                32.8793

                     58                     59                     60
                      A                      A                      A
 Frequencies --   1336.2077              1400.6430              1402.3104
 Red. masses --      9.1013                 8.5549                 8.6879
 Frc consts  --      9.5742                 9.8883                10.0660
 IR Inten    --     11.2297               133.6250               226.7351

                     61                     62                     63
                      A                      A                      A
 Frequencies --   1462.2710              1489.0803              1559.8262
 Red. masses --      8.0717                10.1141                12.1249
 Frc consts  --     10.1688                13.2134                17.3812
 IR Inten    --    431.2489                10.6319              1373.9354

                     64                     65                     66
                      A                      A                      A
 Frequencies --   1624.5852              1682.6855              1719.6238
 Red. masses --     10.4394                10.6077                11.2650
 Frc consts  --     16.2335                17.6961                19.6267
 IR Inten    --     52.4029               110.9650               306.9214

                     67                     68                     69
                      A                      A                      A
 Frequencies --   4474.2155              4486.3977              4675.7520
 Red. masses --      1.0317                 1.0314                 1.1073
 Frc consts  --     12.1690                12.2309                14.2634
 IR Inten    --     42.9366                20.2624                 2.4305

                     70                     71                     72
                      A                      A                      A
 Frequencies --   4682.0588              4689.5918              4703.1305
 Red. masses --      1.1079                 1.1082                 1.1084
 Frc consts  --     14.3100                14.3594                14.4449
 IR Inten    --      2.6580                 2.3789                 0.7365

                     73                     74                     75
                      A                      A                      A
 Frequencies --   5023.5409              5039.1072              5045.2222
 Red. masses --      1.0883                 1.0885                 1.0903
 Frc consts  --     16.1815                16.2851                16.3512
 IR Inten    --      0.9434                 0.3729                 1.4958

                     76                     77                     78
                      A                      A                      A
 Frequencies --   5049.7111              5856.0563              5861.4321
 Red. masses --      1.0921                 1.0766                 1.0766
 Frc consts  --     16.4079                21.7534                21.7923
 IR Inten    --      0.1980                 2.3479                95.7850

 - Thermochemistry -
 -------------------
 Temperature   298.150 Kelvin.  Pressure   1.00000 Atm.
 Atom     1 has atomic number 15 and mass  30.97376

 Molecular mass:   245.05654 amu.
 Principal axes and moments of inertia in atomic units:
                           1         2         3
     Eigenvalues --  1408.172978461.700119084.72915
           X            0.99998  -0.00120  -0.00602
           Y            0.00129   0.99989   0.01472
           Z            0.00600  -0.01473   0.99987
 This molecule is an asymmetric top.
 Rotational symmetry number  1.
 Warning -- assumption of classical behavior for rotation
           may cause significant error
 Rotational temperatures (Kelvin)      0.06151     0.01024     0.00953
 Rotational constants (GHZ):           1.28162     0.21328     0.19866
   19 imaginary frequencies ignored.
 Zero-point vibrational energy     589548.0 (Joules/Mol)
                                  140.90536 (Kcal/Mol)
 Warning -- explicit consideration of  17 degrees of freedom as
           vibrations may cause significant error
 Vibrational temperatures:    116.19   171.25   182.04   239.88   325.84
          (Kelvin)            371.77   410.42   453.67   458.98   544.88
                              575.75   645.55   761.79   793.18   827.26
                              846.56   849.80   925.41   937.36   944.02
                             1022.83  1060.49  1140.03  1152.02  1167.39
                             1209.68  1254.16  1316.93  1364.56  1447.54
                             1481.10  1495.08  1519.04  1558.58  1583.86
                             1647.28  1766.97  1833.74  1922.50  2015.21
                             2017.61  2103.88  2142.45  2244.24  2337.42
                             2421.01  2474.16  6437.40  6454.93  6727.36
                             6736.44  6747.28  6766.76  7227.75  7250.15
                             7258.95  7265.41  8425.56  8433.29

 Zero-point correction=                           0.224547 (Hartree/Particle)
 Thermal correction to Energy=                    0.235529
 Thermal correction to Enthalpy=                  0.236473
 Thermal correction to Gibbs Free Energy=         0.186798
 Sum of electronic and zero-point Energies=          -1116.527862
 Sum of electronic and thermal Energies=             -1116.516880
 Sum of electronic and thermal Enthalpies=           -1116.515936
 Sum of electronic and thermal Free Energies=        -1116.565611

                     E (Thermal)             CV                S
                      KCal/Mol        Cal/Mol-Kelvin    Cal/Mol-Kelvin
 Total                  147.797             43.628            104.551
 Electronic               0.000              0.000              0.000
 Translational            0.889              2.981             42.390
 Rotational               0.889              2.981             33.048
 Vibrational            146.019             37.666             29.114
 Vibration     1          0.600              1.962              3.872
 Vibration     2          0.609              1.933              3.116
 Vibration     3          0.611              1.927              2.998
 Vibration     4          0.624              1.883              2.472
 Vibration     5          0.650              1.801              1.907
 Vibration     6          0.667              1.749              1.673
 Vibration     7          0.683              1.701              1.502
 Vibration     8          0.703              1.644              1.334
 Vibration     9          0.705              1.637              1.315
 Vibration    10          0.749              1.516              1.044
 Vibration    11          0.766              1.470              0.962
 Vibration    12          0.808              1.364              0.800
 Vibration    13          0.884              1.185              0.588
 Vibration    14          0.907              1.137              0.542
 Vibration    15          0.931              1.085              0.495
 Vibration    16          0.946              1.057              0.470
 Vibration    17          0.948              1.052              0.466

 Normal termination of Gaussian 16 at Sat Mar  4 11:47:06 2023.
