 Gaussian 16, Revision C.01,
 Gaussian 16:  ES64L-G16RevC.01  3-Jul-2019

 ----------------------------------------------------------------------
 #p pop=(regular,nbo,savenbos) freq=noraman def2svp empiricaldispersion
 =gd3bj output=wfx pbe1pbe
 ----------------------------------------------------------------------

 ----------------------------------------
 JAKBUT_Complex_1_Ligand_0_ON_Cu_oriented
 ----------------------------------------
 Symbolic Z-matrix:
 Charge = -1 Multiplicity = 1

                         Standard orientation:
 ---------------------------------------------------------------------
 Center     Atomic      Atomic             Coordinates (Angstroms)
 Number     Number       Type             X           Y           Z
 ---------------------------------------------------------------------
      1          8           0       -0.362816   -0.179493    1.767966
      2          6           0        1.833445   -0.670275   -1.213486
      3          6           0        1.305869   -0.501945    0.060963
      4          6           0       -0.183717   -0.314826    0.389778
      5          6           0       -0.905222   -1.611856   -0.067799
      6          6           0       -2.404225   -1.547234    0.204387
      7          6           0       -2.995404   -0.330395   -0.486508
      8          6           0       -2.286782    0.954601   -0.088430
      9          6           0       -0.782029    0.898015   -0.366399
     10          6           0       -0.047568    2.238958   -0.138969
     11          6           0       -0.361743    2.896545    1.207951
     12          6           0       -0.317665    3.223804   -1.247658
     13          1           0        0.884266    2.053952   -0.149487
     14          1           0       -0.539037   -2.351798    0.402348
     15          1           0       -0.766974   -1.730064   -1.000493
     16          1           0       -3.912831   -0.259939   -0.251409
     17          1           0       -2.917345   -0.444133   -1.427189
     18          1           0       -2.420987    1.101674    0.840853
     19          1           0       -2.662035    1.675888   -0.580154
     20          1           0       -0.108186    2.309545    1.911785
     21          1           0       -1.291425    3.076295    1.262800
     22          1           0        0.125235    3.708870    1.283887
     23          1           0        0.187241    4.015330   -1.098858
     24          1           0       -1.243546    3.438539   -1.262415
     25          1           0       -0.067823    2.841260   -2.079572
     26          1           0       -2.532453   -1.449797    1.139514
     27          1           0       -0.692485    0.702169   -1.291949
     28          7           0        2.110174   -0.546453    1.120138
     29          6           0        3.425528   -0.740635    0.975372
     30          6           0        3.990132   -0.908499   -0.266765
     31          1           0        3.980737   -0.758907    1.744875
     32          6           0        3.179851   -0.864118   -1.361751
     33          1           0        3.549802   -0.967311   -2.229511
     34          6           0       -3.099871   -2.836906   -0.243607
     35          1           0       -4.023798   -2.788484   -0.026775
     36          1           0       -2.708105   -3.578532    0.200711
     37          1           0        1.264744   -0.650453   -1.972816
     38          1           0        4.923899   -1.053918   -0.360790
     39          1           0       -3.001184   -2.940475   -1.182502
 ---------------------------------------------------------------------

 SCF Done:  E(RPBE1PBE) =  -713.078853932     A.U. after   20 cycles

 The electronic state is 1-A.
 Alpha  occ. eigenvalues --  -18.87467 -14.22356 -10.11359 -10.10599 -10.09988
 Alpha  occ. eigenvalues --  -10.08961 -10.08524 -10.07373 -10.06150 -10.05607
 Alpha  occ. eigenvalues --  -10.04859 -10.04768 -10.04680 -10.04436 -10.03639
 Alpha  occ. eigenvalues --  -10.02277 -10.01934  -0.81663  -0.73799  -0.69646
 Alpha  occ. eigenvalues --   -0.69505  -0.68486  -0.64804  -0.64207  -0.59473
 Alpha  occ. eigenvalues --   -0.58475  -0.57631  -0.52555  -0.51837  -0.50738
 Alpha  occ. eigenvalues --   -0.46476  -0.44986  -0.43140  -0.39620  -0.37374
 Alpha  occ. eigenvalues --   -0.36249  -0.35106  -0.34760  -0.33790  -0.32380
 Alpha  occ. eigenvalues --   -0.32270  -0.30774  -0.30345  -0.29701  -0.29152
 Alpha  occ. eigenvalues --   -0.28613  -0.27881  -0.27454  -0.26314  -0.23921
 Alpha  occ. eigenvalues --   -0.23252  -0.21858  -0.21014  -0.20135  -0.20057
 Alpha  occ. eigenvalues --   -0.18647  -0.16546  -0.15717  -0.15523  -0.12607
 Alpha  occ. eigenvalues --   -0.11894  -0.09112   0.01703   0.02018
 Alpha virt. eigenvalues --    0.11996   0.13435   0.19712   0.20774   0.21030
 Alpha virt. eigenvalues --    0.22918   0.24021   0.24598   0.25920   0.26257
 Alpha virt. eigenvalues --    0.26934   0.27667   0.28027   0.29012   0.29087

 Mulliken charges:
               1
     1  O   -0.600820
     2  C    0.065793
     3  C   -0.056595
     4  C    0.034639
     5  C    0.307391
     6  C   -0.124697
     7  C    0.172868
     8  C    0.239645
     9  C   -0.018027
    10  C   -0.107028
    11  C    0.264301
    12  C    0.255733
    13  H   -0.064993
    14  H   -0.090831
    15  H   -0.125930
    16  H   -0.087186
    17  H   -0.093247
    18  H   -0.067471
    19  H   -0.097198
    20  H   -0.039885
    21  H   -0.070843
    22  H   -0.089459
    23  H   -0.067576
    24  H   -0.062361
    25  H   -0.064125
    26  H   -0.078170
    27  H   -0.123160
    28  N   -0.115907
    29  C    0.151355
    30  C   -0.005461
    31  H   -0.093581
    32  C    0.120657
    33  H   -0.112454
    34  C    0.262802
    35  H   -0.067542
    36  H   -0.056143
    37  H   -0.114805
    38  H   -0.111888
    39  H   -0.067800
 Sum of Mulliken charges =  -1.00000

 Dipole moment (field-independent basis, Debye):
    X=              0.9513    Y=              0.3695    Z=             -5.9863  Tot=              6.0726
 Quadrupole moment (field-independent basis, Debye-Ang):
   XX=           -115.6667   YY=           -116.7857   ZZ=           -119.7141
   XY=             -0.9926   XZ=             -0.5504   YZ=              1.2223

  Exact polarizability:     198.412      -1.687     142.340      -2.720       3.736     135.855
 Approx polarizability:     259.297      -6.365     180.452      -6.175       7.288     232.657

 Summary of Natural Population Analysis:

                                       Natural Population
                Natural  -----------------------------------------------
    Atom  No    Charge         Core      Valence    Rydberg      Total
 -----------------------------------------------------------------------
      O    1   -0.96022      1.99984     6.95294    0.00744     8.96022
      C    2   -0.23303      1.99898     4.21939    0.01466     6.23303
      C    3    0.24514      1.99891     3.71883    0.03712     5.75486
      C    4    0.28909      1.99894     3.66196    0.05001     5.71091
      C    5   -0.38666      1.99892     4.36440    0.02333     6.38666
      C    6   -0.14558      1.99902     4.13057    0.01600     6.14558
      C    7   -0.35459      1.99903     4.34063    0.01493     6.35459
      C    8   -0.34754      1.99903     4.33098    0.01752     6.34754
      C    9   -0.22038      1.99882     4.19808    0.02349     6.22038
      C   10   -0.14565      1.99902     4.12933    0.01730     6.14565
      C   11   -0.54362      1.99914     4.53273    0.01175     6.54362
      C   12   -0.54511      1.99916     4.53548    0.01047     6.54511
      H   13    0.16761      0.00000     0.82673    0.00566     0.83239
      H   14    0.18218      0.00000     0.81010    0.00772     0.81782
      H   15    0.14852      0.00000     0.84500    0.00648     0.85148
      H   16    0.16658      0.00000     0.82925    0.00417     0.83342
      H   17    0.15846      0.00000     0.83669    0.00486     0.84154
      H   18    0.18891      0.00000     0.80139    0.00970     0.81109
      H   19    0.16123      0.00000     0.83483    0.00394     0.83877
      H   20    0.21283      0.00000     0.77630    0.01086     0.78717
      H   21    0.16497      0.00000     0.83213    0.00290     0.83503
      H   22    0.15628      0.00000     0.84016    0.00356     0.84372
      H   23    0.17102      0.00000     0.82551    0.00347     0.82898
      H   24    0.17071      0.00000     0.82607    0.00322     0.82929
      H   25    0.17183      0.00000     0.82481    0.00336     0.82817
      H   26    0.17298      0.00000     0.81249    0.01453     0.82702
      H   27    0.15162      0.00000     0.84124    0.00714     0.84838
      N   28   -0.45631      1.99924     5.43721    0.01987     7.45631
      C   29    0.08618      1.99911     3.89277    0.02194     5.91382
      C   30   -0.26479      1.99910     4.25174    0.01395     6.26479
      H   31    0.14282      0.00000     0.85358    0.00359     0.85718
      C   32   -0.17749      1.99910     4.16321    0.01518     6.17749
      H   33    0.16400      0.00000     0.83253    0.00347     0.83600
      C   34   -0.54296      1.99915     4.53318    0.01062     6.54296
      H   35    0.16849      0.00000     0.82816    0.00335     0.83151
      H   36    0.17614      0.00000     0.82065    0.00321     0.82386
      H   37    0.17541      0.00000     0.82140    0.00319     0.82459
      H   38    0.16422      0.00000     0.83175    0.00403     0.83578
      H   39    0.16670      0.00000     0.82950    0.00380     0.83330
 =======================================================================
   * Total *   -1.00000     33.98452    93.57368    0.44180   128.00000

 ******   35 imaginary frequencies (negative Signs) ******

                      1                      2                      3
                      A                      A                      A
 Frequencies --  -1475.1755             -1473.8167             -1465.6400
 Red. masses --      1.0085                 1.0099                 1.0093
 Frc consts  --      1.2931                 1.2924                 1.2774
 IR Inten    --      0.2755                 0.1718                 0.0574

                      4                      5                      6
                      A                      A                      A
 Frequencies --  -1286.5335             -1283.5240             -1279.2956
 Red. masses --      1.0365                 1.0786                 1.0272
 Frc consts  --      1.0108                 1.0470                 0.9905
 IR Inten    --      6.4037                43.9728                 0.3284

                      7                      8                      9
                      A                      A                      A
 Frequencies --  -1245.2703             -1157.6503             -1141.2752
 Red. masses --      1.0221                 1.0343                 1.0516
 Frc consts  --      0.9338                 0.8167                 0.8070
 IR Inten    --      7.4544                 0.0799                 6.7352

                     10                     11                     12
                      A                      A                      A
 Frequencies --  -1134.8560             -1126.1056             -1122.6945
 Red. masses --      1.0662                 1.0219                 1.0400
 Frc consts  --      0.8090                 0.7635                 0.7724
 IR Inten    --      8.8228                 1.5835                 4.4928

                     13                     14                     15
                      A                      A                      A
 Frequencies --  -1120.3045             -1098.1734             -1088.9067
 Red. masses --      1.0657                 1.0320                 1.0382
 Frc consts  --      0.7880                 0.7333                 0.7253
 IR Inten    --      1.0662                 7.5047                11.3370

                     16                     17                     18
                      A                      A                      A
 Frequencies --   -998.8635              -850.1295              -822.3668
 Red. masses --      1.0310                 1.1121                 1.0876
 Frc consts  --      0.6061                 0.4735                 0.4334
 IR Inten    --      0.7486                 3.5623                 0.5387

                     19                     20                     21
                      A                      A                      A
 Frequencies --   -805.6319              -771.2544              -753.4455
 Red. masses --      1.1411                 1.1826                 1.1326
 Frc consts  --      0.4363                 0.4145                 0.3788
 IR Inten    --      4.4737                 0.3328                 2.8306

                     22                     23                     24
                      A                      A                      A
 Frequencies --   -694.7376              -680.1812              -663.8229
 Red. masses --      1.1152                 1.2344                 1.2520
 Frc consts  --      0.3171                 0.3365                 0.3251
 IR Inten    --      0.4820                 1.0954                 2.0041

                     25                     26                     27
                      A                      A                      A
 Frequencies --   -650.6491              -640.0273              -624.8136
 Red. masses --      1.2201                 1.2298                 1.1685
 Frc consts  --      0.3043                 0.2968                 0.2688
 IR Inten    --      0.4842                 4.6509                 1.9958

                     28                     29                     30
                      A                      A                      A
 Frequencies --   -608.2500              -561.0938              -506.0234
 Red. masses --      1.2814                 1.1756                 1.3051
 Frc consts  --      0.2793                 0.2181                 0.1969
 IR Inten    --      2.8727                 2.6964                 3.9228

                     31                     32                     33
                      A                      A                      A
 Frequencies --   -429.2741              -368.0286              -355.7764
 Red. masses --      1.1750                 1.1794                 1.1268
 Frc consts  --      0.1276                 0.0941                 0.0840
 IR Inten    --     18.4107                21.0865                13.6442

                     34                     35                     36
                      A                      A                      A
 Frequencies --   -310.3126              -290.6427               172.2490
 Red. masses --      1.3017                 1.2869                 8.4883
 Frc consts  --      0.0738                 0.0640                 0.1484
 IR Inten    --     21.5959                13.2394                 0.1880

                     37                     38                     39
                      A                      A                      A
 Frequencies --    182.4681               250.7751               282.3419
 Red. masses --      5.4862                 6.0749                 8.1623
 Frc consts  --      0.1076                 0.2251                 0.3834
 IR Inten    --      1.6204                 0.6051                 0.8358

                     40                     41                     42
                      A                      A                      A
 Frequencies --    316.8170               367.1599               383.7826
 Red. masses --      4.9914                 4.1887                 9.9862
 Frc consts  --      0.2952                 0.3327                 0.8666
 IR Inten    --      6.8831                 7.8371                21.9996

                     43                     44                     45
                      A                      A                      A
 Frequencies --    448.5871               475.1718               503.2664
 Red. masses --      4.5147                 3.0747                11.2331
 Frc consts  --      0.5353                 0.4090                 1.6763
 IR Inten    --      5.0418                 1.7618                 2.2567

                     46                     47                     48
                      A                      A                      A
 Frequencies --    544.2446               584.6389               594.3255
 Red. masses --      3.9622                 5.3743                 5.8226
 Frc consts  --      0.6915                 1.0823                 1.2118
 IR Inten    --     10.4717                 0.8913                 4.6364

                     49                     50                     51
                      A                      A                      A
 Frequencies --    605.0783               612.8996               630.8114
 Red. masses --      3.4182                 2.9604                 3.1343
 Frc consts  --      0.7373                 0.6552                 0.7348
 IR Inten    --      2.0497                 3.3094                 2.2445

                     52                     53                     54
                      A                      A                      A
 Frequencies --    656.0478               659.3109               682.2502
 Red. masses --      3.7523                 2.8863                 1.5767
 Frc consts  --      0.9515                 0.7392                 0.4324
 IR Inten    --      5.3253                13.8215                 3.8503

                     55                     56                     57
                      A                      A                      A
 Frequencies --    698.1977               726.6265               739.1143
 Red. masses --      2.9723                 1.7110                 1.5218
 Frc consts  --      0.8537                 0.5323                 0.4898
 IR Inten    --      9.8281                 6.7213                 0.7192

                     58                     59                     60
                      A                      A                      A
 Frequencies --    753.0216               762.4446               784.6848
 Red. masses --      3.5681                 1.8501                 2.8958
 Frc consts  --      1.1921                 0.6337                 1.0505
 IR Inten    --      7.4530                14.6050                16.4009

                     61                     62                     63
                      A                      A                      A
 Frequencies --    793.8960               821.4225               834.0780
 Red. masses --      2.6476                 3.5142                 2.5336
 Frc consts  --      0.9832                 1.3970                 1.0385
 IR Inten    --      6.9633                 7.3158                 4.1316

                     64                     65                     66
                      A                      A                      A
 Frequencies --    847.8286               872.5193               883.9979
 Red. masses --      2.6096                 1.1968                 1.2196
 Frc consts  --      1.1052                 0.5368                 0.5615
 IR Inten    --      1.9164                 4.5084                 7.8706

                     67                     68                     69
                      A                      A                      A
 Frequencies --    887.0393               903.1818               914.1087
 Red. masses --      1.2082                 1.4103                 1.2774
 Frc consts  --      0.5601                 0.6778                 0.6289
 IR Inten    --      1.9151                 6.4849                 1.9699

                     70                     71                     72
                      A                      A                      A
 Frequencies --    946.7657               962.6260              1021.1267
 Red. masses --      1.9427                 2.3316                 6.3733
 Frc consts  --      1.0260                 1.2730                 3.9154
 IR Inten    --      7.1497                 5.3520                25.1495

                     73                     74                     75
                      A                      A                      A
 Frequencies --   1048.5242              1064.3085              1088.9959
 Red. masses --      6.1892                 2.6647                 5.6454
 Frc consts  --      4.0090                 1.7784                 3.9446
 IR Inten    --     16.6894                13.8168                30.1761

                     76                     77                     78
                      A                      A                      A
 Frequencies --   1113.2693              1131.1907              1147.3213
 Red. masses --      4.1269                 4.1354                 5.0036
 Frc consts  --      3.0135                 3.1178                 3.8806
 IR Inten    --     14.4285                 1.7914                 6.5469

                     79                     80                     81
                      A                      A                      A
 Frequencies --   1191.7869              1199.5919              1223.3712
 Red. masses --      5.9593                 6.0340                 6.0129
 Frc consts  --      4.9871                 5.1159                 5.3021
 IR Inten    --      8.1197                 6.4935                 4.9479

                     82                     83                     84
                      A                      A                      A
 Frequencies --   1235.0474              1242.4048              1261.3641
 Red. masses --      5.6955                 6.1590                 5.6035
 Frc consts  --      5.1186                 5.6013                 5.2528
 IR Inten    --     11.9807                 4.3467                 3.5988

                     85                     86                     87
                      A                      A                      A
 Frequencies --   1385.8575              1411.6348              1436.7038
 Red. masses --      8.7912                 9.2128                 9.4036
 Frc consts  --      9.9480                10.8164                11.4361
 IR Inten    --      1.1345                12.8316                21.8180

                     88                     89                     90
                      A                      A                      A
 Frequencies --   1654.6055              1709.1207              4579.0647
 Red. masses --     10.7159                10.5267                 1.0319
 Frc consts  --     17.2850                18.1172                12.7486
 IR Inten    --     10.8651                71.7308                20.9708

                     91                     92                     93
                      A                      A                      A
 Frequencies --   4584.6945              4585.2122              4645.2490
 Red. masses --      1.0323                 1.0315                 1.0577
 Frc consts  --     12.7841                12.7778                13.4470
 IR Inten    --     56.5998                23.3518                20.7045

                     94                     95                     96
                      A                      A                      A
 Frequencies --   4647.1935              4655.8017              4701.8475
 Red. masses --      1.0578                 1.0589                 1.0853
 Frc consts  --     13.4597                13.5235                14.1364
 IR Inten    --     39.2554                42.5305                31.7764

                     97                     98                     99
                      A                      A                      A
 Frequencies --   4730.4301              4756.1134              4758.6362
 Red. masses --      1.0873                 1.0864                 1.0881
 Frc consts  --     14.3350                14.4795                14.5169
 IR Inten    --      7.3071                 0.8617                 1.0734

                    100                    101                    102
                      A                      A                      A
 Frequencies --   4769.1699              4776.3685              4781.7069
 Red. masses --      1.0884                 1.0907                 1.0929
 Frc consts  --     14.5860                14.6601                14.7234
 IR Inten    --      6.0813                27.8289                10.8857

                    103                    104                    105
                      A                      A                      A
 Frequencies --   4786.6518              4787.0467              4789.5672
 Red. masses --      1.1083                 1.1078                 1.1063
 Frc consts  --     14.9610                14.9566                14.9521
 IR Inten    --      8.1642                22.4218                13.9080

                    106                    107                    108
                      A                      A                      A
 Frequencies --   4791.6594              4795.2009              4795.9721
 Red. masses --      1.1090                 1.1064                 1.1089
 Frc consts  --     15.0024                14.9890                15.0275
 IR Inten    --     14.8161                17.6502                16.3203

                    109                    110                    111
                      A                      A                      A
 Frequencies --   4800.3260              4807.6755              4814.2346
 Red. masses --      1.1064                 1.1066                 1.1067
 Frc consts  --     15.0211                15.0706                15.1118
 IR Inten    --     12.8751                11.4639                10.9033

 - Thermochemistry -
 -------------------
 Temperature   298.150 Kelvin.  Pressure   1.00000 Atm.
 Atom     1 has atomic number  8 and mass  15.99491

 Molecular mass:   232.17014 amu.
 Principal axes and moments of inertia in atomic units:
                           1         2         3
     Eigenvalues --  2926.092274601.945996108.47481
           X            0.99967   0.02584   0.00134
           Y           -0.02585   0.99965   0.00508
           Z           -0.00121  -0.00511   0.99999
 This molecule is an asymmetric top.
 Rotational symmetry number  1.
 Warning -- assumption of classical behavior for rotation
           may cause significant error
 Rotational temperatures (Kelvin)      0.02960     0.01882     0.01418
 Rotational constants (GHZ):           0.61678     0.39217     0.29545
   35 imaginary frequencies ignored.
 Zero-point vibrational energy     895942.1 (Joules/Mol)
                                  214.13531 (Kcal/Mol)
 Warning -- explicit consideration of  15 degrees of freedom as
           vibrations may cause significant error
 Vibrational temperatures:    247.83   262.53   360.81   406.23   455.83
          (Kelvin)            528.26   552.18   645.42   683.67   724.09
                              783.05   841.17   855.10   870.57   881.83
                              907.60   943.91   948.60   981.61  1004.55
                             1045.45  1063.42  1083.43  1096.99  1128.99
                             1142.24  1181.84  1200.05  1219.84  1255.36
                             1271.88  1276.25  1299.48  1315.20  1362.18
                             1385.00  1469.17  1508.59  1531.30  1566.82
                             1601.75  1627.53  1650.74  1714.72  1725.95
                             1760.16  1776.96  1787.54  1814.82  1993.94
                             2031.03  2067.10  2380.61  2459.04  6588.25
                             6596.35  6597.10  6683.48  6686.27  6698.66
                             6764.91  6806.03  6842.99  6846.62  6861.77
                             6872.13  6879.81  6886.92  6887.49  6891.12
                             6894.13  6899.22  6900.33  6906.60  6917.17
                             6926.61

 Zero-point correction=                           0.341246 (Hartree/Particle)
 Thermal correction to Energy=                    0.350896
 Thermal correction to Enthalpy=                  0.351840
 Thermal correction to Gibbs Free Energy=         0.306038
 Sum of electronic and zero-point Energies=           -712.737608
 Sum of electronic and thermal Energies=              -712.727958
 Sum of electronic and thermal Enthalpies=            -712.727014
 Sum of electronic and thermal Free Energies=         -712.772816

                     E (Thermal)             CV                S
                      KCal/Mol        Cal/Mol-Kelvin    Cal/Mol-Kelvin
 Total                  220.190             44.631             96.398
 Electronic               0.000              0.000              0.000
 Translational            0.889              2.981             42.229
 Rotational               0.889              2.981             32.775
 Vibrational            218.413             38.670             21.394
 Vibration     1          0.626              1.877              2.411
 Vibration     2          0.630              1.864              2.303
 Vibration     3          0.663              1.761              1.725
 Vibration     4          0.681              1.706              1.519
 Vibration     5          0.704              1.641              1.326
 Vibration     6          0.740              1.540              1.092
 Vibration     7          0.753              1.505              1.024
 Vibration     8          0.808              1.364              0.800
 Vibration     9          0.832              1.305              0.723
 Vibration    10          0.859              1.243              0.650
 Vibration    11          0.899              1.152              0.556
 Vibration    12          0.942              1.065              0.477
 Vibration    13          0.952              1.044              0.460
 Vibration    14          0.964              1.021              0.441
 Vibration    15          0.972              1.005              0.428

 Normal termination of Gaussian 16 at Mon Mar  6 11:37:37 2023.
