 Gaussian 16, Revision C.01,
 Gaussian 16:  ES64L-G16RevC.01  3-Jul-2019

 ----------------------------------------------------------------------
 #p pop=(regular,nbo,savenbos) freq=noraman def2svp empiricaldispersion
 =gd3bj output=wfx pbe1pbe
 ----------------------------------------------------------------------

 ----------------------------------------
 JAKCAA_Complex_1_Ligand_0_ON_Cu_oriented
 ----------------------------------------
 Symbolic Z-matrix:
 Charge = -1 Multiplicity = 1

                         Standard orientation:
 ---------------------------------------------------------------------
 Center     Atomic      Atomic             Coordinates (Angstroms)
 Number     Number       Type             X           Y           Z
 ---------------------------------------------------------------------
      1          8           0        0.393162   -0.183251   -1.890761
      2          6           0        0.288141   -0.017518   -0.529513
      3          6           0        0.979998   -1.215330    0.318970
      4          6           0        2.178106   -0.467154    0.972189
      5          6           0        1.566847    0.874514    1.357181
      6          6           0        1.121403    1.234582   -0.061193
      7          6           0        3.193638   -0.028942   -0.081208
      8          6           0        1.359442   -2.368227   -0.584941
      9          6           0        0.106028   -1.811014    1.444307
     10          1           0        2.563612   -0.934399    1.704169
     11          1           0        2.203555    1.483559    1.710684
     12          1           0        0.839764    0.790645    1.963672
     13          1           0        3.998608    0.274600    0.324499
     14          1           0        1.834817   -3.020062   -0.083623
     15          1           0        0.573690   -2.758534   -0.947360
     16          1           0       -0.159388   -1.120151    2.039376
     17          1           0        0.605209   -2.464977    1.919648
     18          1           0       -0.666130   -2.215863    1.065140
     19          6           0        0.448837    2.577687   -0.280456
     20          1           0       -0.377508    2.598709    0.186644
     21          1           0        0.290466    2.705242   -1.208769
     22          1           0        1.012679    3.270726    0.042535
     23          7           0       -1.996814   -0.461622   -1.123054
     24          6           0       -1.226625    0.086312   -0.181810
     25          6           0       -1.807570    0.638036    0.950677
     26          6           0       -3.176659    0.623776    1.090237
     27          6           0       -3.953906    0.041781    0.131669
     28          6           0       -3.348184   -0.492790   -0.967532
     29          1           0       -1.261957    1.023706    1.626155
     30          1           0       -3.580066    1.021124    1.852266
     31          1           0       -4.897529    0.008694    0.228485
     32          6           0        2.463109    1.132203   -0.805957
     33          1           0        2.954330    1.941454   -0.732278
     34          1           0        2.326508    0.927004   -1.724220
     35          1           0        3.390369   -0.737331   -0.682866
     36          1           0       -3.883088   -0.895791   -1.640831
     37          1           0        1.908831   -2.048485   -1.291582
 ---------------------------------------------------------------------

 SCF Done:  E(RPBE1PBE) =  -711.912114556     A.U. after   20 cycles

 The electronic state is 1-A.
 Alpha  occ. eigenvalues --  -18.87823 -14.22549 -10.11220 -10.10662 -10.09992
 Alpha  occ. eigenvalues --  -10.08829 -10.08405 -10.07767 -10.06612 -10.06224
 Alpha  occ. eigenvalues --  -10.06204 -10.04383 -10.04350 -10.03150 -10.02835
 Alpha  occ. eigenvalues --  -10.02566 -10.01058  -0.81138  -0.75711  -0.70209
 Alpha  occ. eigenvalues --   -0.68447  -0.66536  -0.64980  -0.62678  -0.59901
 Alpha  occ. eigenvalues --   -0.57911  -0.54595  -0.52760  -0.51940  -0.49633
 Alpha  occ. eigenvalues --   -0.45851  -0.42919  -0.40930  -0.38208  -0.37360
 Alpha  occ. eigenvalues --   -0.35615  -0.35016  -0.34214  -0.32138  -0.32053
 Alpha  occ. eigenvalues --   -0.30928  -0.30098  -0.29311  -0.28931  -0.27937
 Alpha  occ. eigenvalues --   -0.27215  -0.27156  -0.26614  -0.24464  -0.22481
 Alpha  occ. eigenvalues --   -0.21078  -0.20308  -0.18513  -0.17627  -0.17189
 Alpha  occ. eigenvalues --   -0.17110  -0.15239  -0.14787  -0.12750  -0.12037
 Alpha  occ. eigenvalues --   -0.09216   0.01330   0.01650
 Alpha virt. eigenvalues --    0.11865   0.13661   0.20431   0.21222   0.22674
 Alpha virt. eigenvalues --    0.23419   0.24675   0.25746   0.26565   0.27710
 Alpha virt. eigenvalues --    0.28075   0.28738   0.28917   0.29616   0.30577

 Mulliken charges:
               1
     1  O   -0.570965
     2  C    0.247913
     3  C   -0.462738
     4  C   -0.138726
     5  C    0.358393
     6  C   -0.591930
     7  C    0.298137
     8  C    0.388233
     9  C    0.398897
    10  H   -0.128897
    11  H   -0.097188
    12  H   -0.102391
    13  H   -0.094217
    14  H   -0.100291
    15  H   -0.064505
    16  H   -0.102321
    17  H   -0.079629
    18  H   -0.049610
    19  C    0.400010
    20  H   -0.097928
    21  H   -0.052240
    22  H   -0.086153
    23  N   -0.122373
    24  C   -0.091588
    25  C    0.096909
    26  C    0.114204
    27  C    0.005532
    28  C    0.154163
    29  H   -0.116898
    30  H   -0.115068
    31  H   -0.114251
    32  C    0.369358
    33  H   -0.114238
    34  H   -0.093416
    35  H   -0.087895
    36  H   -0.093405
    37  H   -0.062889
 Sum of Mulliken charges =  -1.00000

 Dipole moment (field-independent basis, Debye):
    X=             -1.2751    Y=              1.0594    Z=              6.0087  Tot=              6.2332
 Quadrupole moment (field-independent basis, Debye-Ang):
   XX=           -114.1712   YY=           -111.3737   ZZ=           -120.4845
   XY=             -0.0110   XZ=              0.3238   YZ=             -0.1768

  Exact polarizability:     192.495       0.820     131.996      -4.454       6.364     131.075
 Approx polarizability:     256.861       2.115     186.584      -9.995      21.449     225.163

 Summary of Natural Population Analysis:

                                       Natural Population
                Natural  -----------------------------------------------
    Atom  No    Charge         Core      Valence    Rydberg      Total
 -----------------------------------------------------------------------
      O    1   -0.93865      1.99983     6.93121    0.00761     8.93865
      C    2    0.27948      1.99877     3.66248    0.05927     5.72052
      C    3   -0.03751      1.99902     4.01809    0.02040     6.03751
      C    4   -0.18574      1.99899     4.16549    0.02126     6.18574
      C    5   -0.37538      1.99906     4.35713    0.01918     6.37538
      C    6   -0.04958      1.99896     4.02721    0.02340     6.04958
      C    7   -0.35939      1.99910     4.34418    0.01611     6.35939
      C    8   -0.55054      1.99912     4.53380    0.01761     6.55054
      C    9   -0.55646      1.99914     4.54381    0.01350     6.55646
      H   10    0.16138      0.00000     0.83416    0.00446     0.83862
      H   11    0.16799      0.00000     0.82747    0.00454     0.83201
      H   12    0.16898      0.00000     0.82774    0.00328     0.83102
      H   13    0.16414      0.00000     0.83227    0.00360     0.83586
      H   14    0.15736      0.00000     0.83919    0.00345     0.84264
      H   15    0.19258      0.00000     0.80258    0.00484     0.80742
      H   16    0.17656      0.00000     0.82077    0.00267     0.82344
      H   17    0.16983      0.00000     0.82628    0.00388     0.83017
      H   18    0.18853      0.00000     0.80804    0.00343     0.81147
      C   19   -0.54644      1.99914     4.53369    0.01361     6.54644
      H   20    0.17869      0.00000     0.81849    0.00282     0.82131
      H   21    0.19005      0.00000     0.80150    0.00845     0.80995
      H   22    0.16775      0.00000     0.82893    0.00332     0.83225
      N   23   -0.44780      1.99926     5.42962    0.01893     7.44780
      C   24    0.24685      1.99894     3.71563    0.03858     5.75315
      C   25   -0.24471      1.99897     4.23074    0.01501     6.24471
      C   26   -0.17036      1.99909     4.15613    0.01514     6.17036
      C   27   -0.26509      1.99909     4.25212    0.01388     6.26509
      C   28    0.07795      1.99909     3.90128    0.02167     5.92205
      H   29    0.17778      0.00000     0.81869    0.00353     0.82222
      H   30    0.16445      0.00000     0.83217    0.00338     0.83555
      H   31    0.16473      0.00000     0.83122    0.00405     0.83527
      C   32   -0.35343      1.99901     4.33468    0.01974     6.35343
      H   33    0.15569      0.00000     0.84022    0.00410     0.84431
      H   34    0.20965      0.00000     0.77903    0.01133     0.79035
      H   35    0.17926      0.00000     0.81710    0.00364     0.82074
      H   36    0.14378      0.00000     0.85278    0.00344     0.85622
      H   37    0.19764      0.00000     0.79607    0.00630     0.80236
 =======================================================================
   * Total *   -1.00000     33.98461    91.57197    0.44342   126.00000

 ******   31 imaginary frequencies (negative Signs) ******

                      1                      2                      3
                      A                      A                      A
 Frequencies --  -1482.0934             -1472.4008             -1450.5617
 Red. masses --      1.0090                 1.0099                 1.0098
 Frc consts  --      1.3058                 1.2899                 1.2519
 IR Inten    --      0.1127                 0.4767                 0.0652

                      4                      5                      6
                      A                      A                      A
 Frequencies --  -1276.1255             -1261.3416             -1234.4636
 Red. masses --      1.0842                 1.0389                 1.0232
 Frc consts  --      1.0403                 0.9738                 0.9187
 IR Inten    --     42.5099                11.9874                 0.5060

                      7                      8                      9
                      A                      A                      A
 Frequencies --  -1206.6950             -1148.3465             -1137.7076
 Red. masses --      1.0264                 1.0327                 1.0670
 Frc consts  --      0.8805                 0.8024                 0.8137
 IR Inten    --      6.0893                 2.8030                16.3683

                     10                     11                     12
                      A                      A                      A
 Frequencies --  -1131.4077             -1114.4184             -1107.4882
 Red. masses --      1.0463                 1.0200                 1.0394
 Frc consts  --      0.7891                 0.7464                 0.7511
 IR Inten    --      6.4418                 2.3023                 2.2946

                     13                     14                     15
                      A                      A                      A
 Frequencies --  -1095.0353             -1092.5468             -1065.7656
 Red. masses --      1.0289                 1.0497                 1.0365
 Frc consts  --      0.7269                 0.7382                 0.6936
 IR Inten    --      4.6896                 4.9920                 6.7125

                     16                     17                     18
                      A                      A                      A
 Frequencies --   -989.4044              -940.5215              -878.9500
 Red. masses --      1.0318                 1.1137                 1.1173
 Frc consts  --      0.5951                 0.5805                 0.5086
 IR Inten    --      2.1620                 2.5981                 0.1482

                     19                     20                     21
                      A                      A                      A
 Frequencies --   -851.6065              -814.7497              -762.7435
 Red. masses --      1.0897                 1.1128                 1.0750
 Frc consts  --      0.4656                 0.4352                 0.3685
 IR Inten    --      1.8693                 6.3430                 0.8585

                     22                     23                     24
                      A                      A                      A
 Frequencies --   -717.4145              -690.7651              -678.2239
 Red. masses --      1.1110                 1.1223                 1.0774
 Frc consts  --      0.3369                 0.3155                 0.2920
 IR Inten    --      3.5892                 0.0960                 1.9235

                     25                     26                     27
                      A                      A                      A
 Frequencies --   -613.7465              -584.1430              -515.6261
 Red. masses --      1.2301                 1.1367                 1.3161
 Frc consts  --      0.2730                 0.2285                 0.2062
 IR Inten    --      3.4544                 4.1321                 6.6383

                     28                     29                     30
                      A                      A                      A
 Frequencies --   -408.4395              -389.2049              -342.8252
 Red. masses --      1.2162                 1.1748                 1.1014
 Frc consts  --      0.1195                 0.1048                 0.0763
 IR Inten    --     16.3278                25.2445                15.3939

                     31                     32                     33
                      A                      A                      A
 Frequencies --   -309.4172               148.2967               210.2750
 Red. masses --      1.1851                 9.3111                 6.3539
 Frc consts  --      0.0668                 0.1206                 0.1655
 IR Inten    --     24.5290                 0.8122                 1.7918

                     34                     35                     36
                      A                      A                      A
 Frequencies --    240.3093               286.9080               316.1164
 Red. masses --      5.8945                 8.1033                 6.3897
 Frc consts  --      0.2006                 0.3930                 0.3762
 IR Inten    --      0.3947                 2.0053                 2.2437

                     37                     38                     39
                      A                      A                      A
 Frequencies --    365.9534               395.5907               406.3146
 Red. masses --      7.7837                 6.7376                 7.8113
 Frc consts  --      0.6142                 0.6212                 0.7598
 IR Inten    --      6.3383                 5.4719                 9.9339

                     40                     41                     42
                      A                      A                      A
 Frequencies --    430.0000               447.6983               490.2387
 Red. masses --      5.1125                 5.4298                 5.8679
 Frc consts  --      0.5570                 0.6412                 0.8309
 IR Inten    --      1.5439                 3.7886                10.0747

                     43                     44                     45
                      A                      A                      A
 Frequencies --    519.1167               541.6262               599.3781
 Red. masses --     10.9270                 5.7327                 5.1353
 Frc consts  --      1.7349                 0.9908                 1.0870
 IR Inten    --      2.8278                 2.8087                 2.8221

                     46                     47                     48
                      A                      A                      A
 Frequencies --    610.6477               632.7776               641.5754
 Red. masses --      5.7453                 4.8834                 5.0149
 Frc consts  --      1.2622                 1.1521                 1.2162
 IR Inten    --      2.2461                 0.7984                 0.4238

                     49                     50                     51
                      A                      A                      A
 Frequencies --    674.3413               695.1753               706.5468
 Red. masses --      4.0219                 4.9480                 2.0555
 Frc consts  --      1.0776                 1.4089                 0.6046
 IR Inten    --      9.3512                10.7136                 2.7843

                     52                     53                     54
                      A                      A                      A
 Frequencies --    752.0600               752.5170               776.6126
 Red. masses --      2.8033                 3.7529                 1.6032
 Frc consts  --      0.9342                 1.2521                 0.5697
 IR Inten    --      9.4615                 7.2946                41.4452

                     55                     56                     57
                      A                      A                      A
 Frequencies --    779.1384               801.4897               802.2333
 Red. masses --      1.6295                 2.7966                 2.7117
 Frc consts  --      0.5828                 1.0585                 1.0282
 IR Inten    --     15.7332                 5.5822                 8.1320

                     58                     59                     60
                      A                      A                      A
 Frequencies --    829.7430               833.9368               841.2860
 Red. masses --      1.5037                 1.7731                 1.3947
 Frc consts  --      0.6100                 0.7265                 0.5816
 IR Inten    --      4.5818                 8.1792                 6.9952

                     61                     62                     63
                      A                      A                      A
 Frequencies --    848.8270               872.7889               877.5989
 Red. masses --      1.9505                 1.1643                 1.1339
 Frc consts  --      0.8280                 0.5226                 0.5146
 IR Inten    --      4.1389                 2.3124                 7.6251

                     64                     65                     66
                      A                      A                      A
 Frequencies --    885.9951               893.3282               931.4533
 Red. masses --      1.2805                 1.1581                 2.0601
 Frc consts  --      0.5922                 0.5445                 1.0531
 IR Inten    --     12.2982                 5.8109                 0.5163

                     67                     68                     69
                      A                      A                      A
 Frequencies --    953.1051               993.7029              1029.1865
 Red. masses --      5.0019                 5.2396                 5.0045
 Frc consts  --      2.6771                 3.0483                 3.1232
 IR Inten    --     17.5623                22.4459                 7.2035

                     70                     71                     72
                      A                      A                      A
 Frequencies --   1036.6752              1078.4709              1098.6156
 Red. masses --      6.8506                 8.7157                 5.4555
 Frc consts  --      4.3378                 5.9727                 3.8795
 IR Inten    --      5.3923                74.3258                 3.4749

                     73                     74                     75
                      A                      A                      A
 Frequencies --   1132.3968              1153.2247              1181.2287
 Red. masses --      4.9769                 4.4697                 5.3875
 Frc consts  --      3.7601                 3.5023                 4.4290
 IR Inten    --      2.8191                 2.5353                 2.6821

                     76                     77                     78
                      A                      A                      A
 Frequencies --   1197.8409              1216.0953              1247.4388
 Red. masses --      6.3006                 5.5718                 6.5504
 Frc consts  --      5.3264                 4.8549                 6.0056
 IR Inten    --      3.5588                 0.2945                 2.9406

                     79                     80                     81
                      A                      A                      A
 Frequencies --   1278.7274              1300.2498              1316.3674
 Red. masses --      7.3815                 8.3455                 8.6463
 Frc consts  --      7.1114                 8.3129                 8.8274
 IR Inten    --      0.3931                 2.1562                12.2887

                     82                     83                     84
                      A                      A                      A
 Frequencies --   1419.1509              1429.5013              1639.8235
 Red. masses --      9.0510                 9.2139                10.6001
 Frc consts  --     10.7400                11.0934                16.7940
 IR Inten    --     16.0853                 6.2199                37.9819

                     85                     86                     87
                      A                      A                      A
 Frequencies --   1704.3629              4578.4750              4585.0571
 Red. masses --     10.4312                 1.0314                 1.0319
 Frc consts  --     17.8529                12.7386                12.7818
 IR Inten    --     20.6103                20.6001                30.1855

                     88                     89                     90
                      A                      A                      A
 Frequencies --   4587.3063              4649.3143              4658.1672
 Red. masses --      1.0322                 1.0584                 1.0581
 Frc consts  --     12.7979                13.4800                13.5266
 IR Inten    --     31.4686                23.0233                29.7671

                     91                     92                     93
                      A                      A                      A
 Frequencies --   4660.3580              4725.2516              4755.1580
 Red. masses --      1.0590                 1.0875                 1.0862
 Frc consts  --     13.5513                14.3069                14.4712
 IR Inten    --     70.9952                48.5840                 1.1332

                     94                     95                     96
                      A                      A                      A
 Frequencies --   4762.3100              4769.4555              4778.2016
 Red. masses --      1.0879                 1.0904                 1.0936
 Frc consts  --     14.5376                14.6138                14.7109
 IR Inten    --      1.4683                19.8327                22.5367

                     97                     98                     99
                      A                      A                      A
 Frequencies --   4786.2356              4788.7756              4791.7549
 Red. masses --      1.1068                 1.1103                 1.1060
 Frc consts  --     14.9389                15.0018                14.9616
 IR Inten    --     14.0981                 3.0009                20.8593

                    100                    101                    102
                      A                      A                      A
 Frequencies --   4792.9343              4794.3154              4797.7974
 Red. masses --      1.1063                 1.1098                 1.1090
 Frc consts  --     14.9736                15.0298                15.0409
 IR Inten    --     12.8905                28.1158                13.0278

                    103                    104                    105
                      A                      A                      A
 Frequencies --   4799.8473              4804.5425              4811.2413
 Red. masses --      1.1062                 1.1062                 1.1066
 Frc consts  --     15.0159                15.0443                15.0917
 IR Inten    --      9.2108                 5.6591                 3.7796

 - Thermochemistry -
 -------------------
 Temperature   298.150 Kelvin.  Pressure   1.00000 Atm.
 Atom     1 has atomic number  8 and mass  15.99491

 Molecular mass:   230.15449 amu.
 Principal axes and moments of inertia in atomic units:
                           1         2         3
     Eigenvalues --  1998.240524404.665734806.44870
           X            0.99999  -0.00191  -0.00502
           Y            0.00185   0.99992  -0.01243
           Z            0.00504   0.01242   0.99991
 This molecule is an asymmetric top.
 Rotational symmetry number  1.
 Warning -- assumption of classical behavior for rotation
           may cause significant error
 Rotational temperatures (Kelvin)      0.04335     0.01966     0.01802
 Rotational constants (GHZ):           0.90317     0.40973     0.37548
   31 imaginary frequencies ignored.
 Zero-point vibrational energy     836910.8 (Joules/Mol)
                                  200.02648 (Kcal/Mol)
 Warning -- explicit consideration of  15 degrees of freedom as
           vibrations may cause significant error
 Vibrational temperatures:    213.37   302.54   345.75   412.80   454.82
          (Kelvin)            526.53   569.17   584.60   618.67   644.14
                              705.34   746.89   779.28   862.37   878.59
                              910.43   923.08   970.23  1000.20  1016.56
                             1082.05  1082.70  1117.37  1121.01  1153.16
                             1154.23  1193.82  1199.85  1210.42  1221.27
                             1255.75  1262.67  1274.75  1285.30  1340.15
                             1371.31  1429.72  1480.77  1491.54  1551.68
                             1580.66  1629.27  1659.23  1699.52  1723.43
                             1749.69  1794.79  1839.80  1870.77  1893.96
                             2041.84  2056.73  2359.34  2452.20  6587.40
                             6596.87  6600.11  6689.33  6702.06  6705.22
                             6798.58  6841.61  6851.90  6862.18  6874.77
                             6886.33  6889.98  6894.27  6895.96  6897.95
                             6902.96  6905.91  6912.67  6922.30

 Zero-point correction=                           0.318762 (Hartree/Particle)
 Thermal correction to Energy=                    0.328633
 Thermal correction to Enthalpy=                  0.329578
 Thermal correction to Gibbs Free Energy=         0.283721
 Sum of electronic and zero-point Energies=           -711.593352
 Sum of electronic and thermal Energies=              -711.583481
 Sum of electronic and thermal Enthalpies=            -711.582537
 Sum of electronic and thermal Free Energies=         -711.628393

                     E (Thermal)             CV                S
                      KCal/Mol        Cal/Mol-Kelvin    Cal/Mol-Kelvin
 Total                  206.221             45.323             96.512
 Electronic               0.000              0.000              0.000
 Translational            0.889              2.981             42.203
 Rotational               0.889              2.981             32.115
 Vibrational            204.443             39.361             22.195
 Vibration     1          0.618              1.905              2.694
 Vibration     2          0.642              1.825              2.041
 Vibration     3          0.657              1.779              1.801
 Vibration     4          0.684              1.698              1.492
 Vibration     5          0.703              1.643              1.330
 Vibration     6          0.739              1.542              1.097
 Vibration     7          0.762              1.480              0.979
 Vibration     8          0.771              1.456              0.940
 Vibration     9          0.791              1.405              0.859
 Vibration    10          0.807              1.366              0.803
 Vibration    11          0.846              1.272              0.683
 Vibration    12          0.874              1.208              0.612
 Vibration    13          0.897              1.158              0.562
 Vibration    14          0.957              1.033              0.451
 Vibration    15          0.970              1.009              0.432

 Normal termination of Gaussian 16 at Mon Mar  6 11:38:00 2023.
