 Gaussian 16, Revision C.01,
 Gaussian 16:  ES64L-G16RevC.01  3-Jul-2019

 ----------------------------------------------------------------------
 #p pop=(regular,nbo,savenbos) freq=noraman def2svp empiricaldispersion
 =gd3bj output=wfx pbe1pbe
 ----------------------------------------------------------------------

 ----------------------------------------
 JAQTUT_Complex_2_Ligand_1_ON_Cu_oriented
 ----------------------------------------
 Symbolic Z-matrix:
 Charge = -1 Multiplicity = 1

                         Standard orientation:
 ---------------------------------------------------------------------
 Center     Atomic      Atomic             Coordinates (Angstroms)
 Number     Number       Type             X           Y           Z
 ---------------------------------------------------------------------
      1          6           0       -3.437450   -0.247411    0.912576
      2          6           0       -4.606565   -1.029273    0.749898
      3          1           0       -4.964207   -1.486353    1.477434
      4          6           0       -5.220847   -1.118339   -0.490457
      5          1           0       -5.993648   -1.624342   -0.596470
      6          6           0       -4.682140   -0.454143   -1.551263
      7          1           0       -5.111182   -0.473602   -2.376103
      8          6           0       -3.520453    0.234354   -1.406834
      9          1           0       -3.143073    0.646190   -2.149323
     10          6           0       -2.878608    0.341016   -0.179793
     11          6           0       -1.595347    1.010359   -0.152138
     12          1           0       -1.300811    1.366093   -0.959765
     13          6           0        0.543845    1.758484    0.571183
     14          1           0        0.854233    2.122992    1.427597
     15          6           0        0.525570    2.936167   -0.376964
     16          1           0       -0.104343    3.590977   -0.063370
     17          1           0        0.269640    2.640131   -1.251907
     18          7           0       -0.812733    1.169683    0.859451
     19          8           0       -2.929055   -0.163455    2.135612
     20          6           0        1.537492    0.640320    0.225505
     21          6           0        1.147331   -0.164969   -1.020849
     22          1           0        1.096251    0.428892   -1.786208
     23          6           0        2.946641    1.237888   -0.047095
     24          1           0        2.901773    1.836514   -0.808982
     25          1           0        3.233686    1.752448    0.724279
     26          6           0        3.974869    0.117115   -0.331602
     27          1           0        4.858327    0.507663   -0.502190
     28          6           0        3.502938   -0.629249   -1.540290
     29          1           0        3.421431   -0.011314   -2.284830
     30          1           0        4.161127   -1.299377   -1.779958
     31          6           0        2.192208   -1.289721   -1.303128
     32          1           0        1.926198   -1.805284   -2.094539
     33          6           0        1.672067   -0.330833    1.367007
     34          1           0        0.810775   -0.744491    1.533513
     35          1           0        1.926180    0.154935    2.165974
     36          6           0        4.028688   -0.745072    0.855999
     37          1           0        4.247223   -0.206524    1.633503
     38          1           0        4.732901   -1.403092    0.741889
     39          6           0        2.247008   -2.171360   -0.120373
     40          1           0        2.841157   -2.915084   -0.303671
     41          1           0        1.362873   -2.531064    0.051189
     42          6           0        2.727467   -1.450905    1.096410
     43          1           0        2.794581   -2.061655    1.860018
     44          1           0        1.400697    3.330590   -0.416061
     45          1           0        0.271508   -0.561956   -0.889827
 ---------------------------------------------------------------------

 SCF Done:  E(RPBE1PBE) =  -866.498501396     A.U. after   19 cycles

 The electronic state is 1-A.
 Alpha  occ. eigenvalues --  -18.93431 -14.20716 -10.12034 -10.11766 -10.11224
 Alpha  occ. eigenvalues --  -10.11187 -10.11096 -10.09818 -10.09626 -10.09588
 Alpha  occ. eigenvalues --  -10.09213 -10.08975 -10.08338 -10.08173 -10.07531
 Alpha  occ. eigenvalues --  -10.07066 -10.05683 -10.05475 -10.04554 -10.03891
 Alpha  occ. eigenvalues --  -10.03289  -0.81537  -0.78302  -0.76465  -0.71443
 Alpha  occ. eigenvalues --   -0.70949  -0.70728  -0.70045  -0.66051  -0.62127
 Alpha  occ. eigenvalues --   -0.60953  -0.60708  -0.57952  -0.55593  -0.52950
 Alpha  occ. eigenvalues --   -0.52718  -0.49791  -0.47617  -0.47083  -0.45769
 Alpha  occ. eigenvalues --   -0.41772  -0.39976  -0.39406  -0.39303  -0.38727
 Alpha  occ. eigenvalues --   -0.38657  -0.36599  -0.35779  -0.34297  -0.33889
 Alpha  occ. eigenvalues --   -0.33642  -0.32297  -0.32122  -0.31953  -0.31166
 Alpha  occ. eigenvalues --   -0.29251  -0.28720  -0.27803  -0.26546  -0.25895
 Alpha  occ. eigenvalues --   -0.24546  -0.24147  -0.24073  -0.23931  -0.23289
 Alpha  occ. eigenvalues --   -0.22976  -0.21305  -0.19961  -0.19377  -0.18909
 Alpha  occ. eigenvalues --   -0.17016  -0.16750  -0.14017  -0.09460  -0.09202
 Alpha  occ. eigenvalues --   -0.02104  -0.01563
 Alpha virt. eigenvalues --    0.12870   0.15419   0.19025   0.19079   0.19478
 Alpha virt. eigenvalues --    0.20045   0.20946   0.21498   0.22114   0.22380
 Alpha virt. eigenvalues --    0.22776   0.23878   0.24438   0.25137   0.25600

 Mulliken charges:
               1
     1  C    0.128829
     2  C    0.012467
     3  H   -0.168192
     4  C    0.103833
     5  H   -0.146899
     6  C    0.044002
     7  H   -0.157576
     8  C    0.074361
     9  H   -0.163358
    10  C   -0.042340
    11  C    0.144811
    12  H   -0.165749
    13  C    0.096868
    14  H   -0.071119
    15  C    0.239407
    16  H   -0.031140
    17  H   -0.036542
    18  N   -0.215047
    19  O   -0.464460
    20  C   -0.476402
    21  C    0.283471
    22  H   -0.072296
    23  C    0.255615
    24  H   -0.058151
    25  H   -0.062568
    26  C   -0.154466
    27  H   -0.065024
    28  C    0.270699
    29  H   -0.063862
    30  H   -0.070356
    31  C   -0.157645
    32  H   -0.057174
    33  C    0.321942
    34  H   -0.022167
    35  H   -0.074451
    36  C    0.283682
    37  H   -0.062158
    38  H   -0.072507
    39  C    0.283137
    40  H   -0.073761
    41  H   -0.039384
    42  C   -0.172410
    43  H   -0.056359
    44  H   -0.056629
    45  H   -0.012935
 Sum of Mulliken charges =  -1.00000

 Dipole moment (field-independent basis, Debye):
    X=             12.4495    Y=              0.2278    Z=             -5.3651  Tot=             13.5582
 Quadrupole moment (field-independent basis, Debye-Ang):
   XX=           -181.5990   YY=           -130.6512   ZZ=           -143.3196
   XY=             -1.3847   XZ=             13.0075   YZ=             -1.4283

  Exact polarizability:     249.957      31.092     161.544      13.801      -3.741     173.707
 Approx polarizability:     314.900      52.730     236.187      34.319      -4.440     304.804

 Summary of Natural Population Analysis:

                                       Natural Population
                Natural  -----------------------------------------------
    Atom  No    Charge         Core      Valence    Rydberg      Total
 -----------------------------------------------------------------------
      C    1    0.37897      1.99872     3.58337    0.03894     5.62103
      C    2   -0.24788      1.99902     4.22843    0.02043     6.24788
      H    3    0.15985      0.00000     0.83466    0.00549     0.84015
      C    4   -0.19033      1.99913     4.17643    0.01478     6.19033
      H    5    0.14806      0.00000     0.84821    0.00372     0.85194
      C    6   -0.29387      1.99909     4.27729    0.01748     6.29387
      H    7    0.15241      0.00000     0.84399    0.00361     0.84759
      C    8   -0.15476      1.99906     4.14025    0.01545     6.15476
      H    9    0.15011      0.00000     0.84576    0.00413     0.84989
      C   10   -0.21128      1.99881     4.19365    0.01883     6.21128
      C   11    0.12831      1.99903     3.84318    0.02948     5.87169
      H   12    0.10133      0.00000     0.89051    0.00817     0.89867
      C   13   -0.00354      1.99883     3.97866    0.02604     6.00354
      H   14    0.17612      0.00000     0.81815    0.00573     0.82388
      C   15   -0.57250      1.99918     4.56277    0.01056     6.57250
      H   16    0.19609      0.00000     0.80053    0.00338     0.80391
      H   17    0.17904      0.00000     0.81819    0.00276     0.82096
      N   18   -0.50092      1.99939     5.48234    0.01920     7.50092
      O   19   -0.73854      1.99981     6.73145    0.00728     8.73854
      C   20   -0.04564      1.99900     4.02875    0.01789     6.04564
      C   21   -0.38305      1.99901     4.36378    0.02025     6.38305
      H   22    0.18386      0.00000     0.81253    0.00361     0.81614
      C   23   -0.37970      1.99904     4.36094    0.01972     6.37970
      H   24    0.18570      0.00000     0.81060    0.00370     0.81430
      H   25    0.18519      0.00000     0.81058    0.00422     0.81481
      C   26   -0.18151      1.99906     4.16478    0.01767     6.18151
      H   27    0.18655      0.00000     0.80908    0.00437     0.81345
      C   28   -0.38520      1.99906     4.36830    0.01785     6.38520
      H   29    0.18811      0.00000     0.80793    0.00396     0.81189
      H   30    0.18058      0.00000     0.81486    0.00456     0.81942
      C   31   -0.17999      1.99907     4.16301    0.01791     6.17999
      H   32    0.19071      0.00000     0.80507    0.00422     0.80929
      C   33   -0.38128      1.99899     4.36044    0.02185     6.38128
      H   34    0.21898      0.00000     0.77528    0.00574     0.78102
      H   35    0.18623      0.00000     0.80993    0.00384     0.81377
      C   36   -0.39015      1.99905     4.37334    0.01776     6.39015
      H   37    0.18899      0.00000     0.80691    0.00410     0.81101
      H   38    0.18029      0.00000     0.81506    0.00466     0.81971
      C   39   -0.38881      1.99905     4.37194    0.01782     6.38881
      H   40    0.17870      0.00000     0.81668    0.00463     0.82130
      H   41    0.20067      0.00000     0.79550    0.00383     0.79933
      C   42   -0.17763      1.99908     4.16038    0.01817     6.17763
      H   43    0.18955      0.00000     0.80654    0.00391     0.81045
      H   44    0.18055      0.00000     0.81637    0.00308     0.81945
      H   45    0.21163      0.00000     0.78451    0.00386     0.78837
 =======================================================================
   * Total *   -1.00000     41.98047   111.51091    0.50861   154.00000

 ******   33 imaginary frequencies (negative Signs) ******

                      1                      2                      3
                      A                      A                      A
 Frequencies --  -1477.5004             -1404.4086             -1382.0337
 Red. masses --      1.0813                 1.0522                 1.0252
 Frc consts  --      1.3908                 1.2228                 1.1537
 IR Inten    --     66.0902                 1.1948                 6.4248

                      4                      5                      6
                      A                      A                      A
 Frequencies --  -1379.2658             -1300.6141             -1230.0525
 Red. masses --      1.0302                 1.0329                 1.0416
 Frc consts  --      1.1546                 1.0294                 0.9285
 IR Inten    --     10.5668                 1.5030                 0.2602

                      7                      8                      9
                      A                      A                      A
 Frequencies --  -1060.4812             -1057.8405             -1054.9429
 Red. masses --      1.0290                 1.0241                 1.0233
 Frc consts  --      0.6818                 0.6752                 0.6710
 IR Inten    --      2.7381                 0.8138                 0.3131

                     10                     11                     12
                      A                      A                      A
 Frequencies --  -1054.1848             -1049.0988             -1046.0237
 Red. masses --      1.0226                 1.0289                 1.0297
 Frc consts  --      0.6696                 0.6672                 0.6638
 IR Inten    --      0.0885                 1.6251                 0.6936

                     13                     14                     15
                      A                      A                      A
 Frequencies --  -1022.9072             -1009.5844              -995.4307
 Red. masses --      1.0574                 1.0470                 1.0757
 Frc consts  --      0.6518                 0.6288                 0.6280
 IR Inten    --      4.6681                19.8017                 1.5092

                     16                     17                     18
                      A                      A                      A
 Frequencies --   -925.9802              -832.9804              -763.0888
 Red. masses --      1.1075                 1.0762                 1.1008
 Frc consts  --      0.5595                 0.4400                 0.3777
 IR Inten    --      4.3804                10.7053                11.8813

                     19                     20                     21
                      A                      A                      A
 Frequencies --   -646.6654              -531.8700              -512.1542
 Red. masses --      1.1507                 1.2716                 1.3465
 Frc consts  --      0.2835                 0.2119                 0.2081
 IR Inten    --      0.8049                 0.6761                 0.8121

                     22                     23                     24
                      A                      A                      A
 Frequencies --   -501.0592              -492.8979              -466.2585
 Red. masses --      1.5170                 1.3774                 1.4007
 Frc consts  --      0.2244                 0.1972                 0.1794
 IR Inten    --      0.3404                 0.2486                 4.9545

                     25                     26                     27
                      A                      A                      A
 Frequencies --   -460.8643              -435.0322              -414.9444
 Red. masses --      1.3977                 1.4022                 1.4060
 Frc consts  --      0.1749                 0.1564                 0.1426
 IR Inten    --      5.9635                 0.5734                 1.3955

                     28                     29                     30
                      A                      A                      A
 Frequencies --   -376.9409              -344.4519              -310.9166
 Red. masses --      1.2188                 1.2876                 1.2804
 Frc consts  --      0.1020                 0.0900                 0.0729
 IR Inten    --      0.0451                 0.7108                 2.1628

                     31                     32                     33
                      A                      A                      A
 Frequencies --   -295.8056              -187.7124               -89.0308
 Red. masses --      1.0719                 2.9951                 4.5789
 Frc consts  --      0.0553                 0.0622                 0.0214
 IR Inten    --      0.5561                 5.0285                 3.2080

                     34                     35                     36
                      A                      A                      A
 Frequencies --    127.5032               137.6471               236.1730
 Red. masses --      5.9476                 7.7918                 2.3826
 Frc consts  --      0.0570                 0.0870                 0.0783
 IR Inten    --      0.8836                 3.2719                 0.9498

                     37                     38                     39
                      A                      A                      A
 Frequencies --    241.8896               245.2395               273.2854
 Red. masses --      1.6175                 2.1821                 1.6837
 Frc consts  --      0.0558                 0.0773                 0.0741
 IR Inten    --      0.8137                 0.3552                 0.4246

                     40                     41                     42
                      A                      A                      A
 Frequencies --    302.1222               331.2718               359.8543
 Red. masses --      3.3880                 1.3659                 1.6292
 Frc consts  --      0.1822                 0.0883                 0.1243
 IR Inten    --      2.0485                26.2809                 3.7468

                     43                     44                     45
                      A                      A                      A
 Frequencies --    375.5778               416.5770               434.9668
 Red. masses --      1.7952                 3.9936                 1.7814
 Frc consts  --      0.1492                 0.4083                 0.1986
 IR Inten    --      9.3652                 1.4974                 2.8060

                     46                     47                     48
                      A                      A                      A
 Frequencies --    437.0681               458.8104               502.3464
 Red. masses --      1.3854                 2.3610                 3.3402
 Frc consts  --      0.1559                 0.2928                 0.4966
 IR Inten    --      1.6076                 1.4180                 4.9650

                     49                     50                     51
                      A                      A                      A
 Frequencies --    511.7548               544.6706               565.4359
 Red. masses --      1.8065                 2.5125                 2.9077
 Frc consts  --      0.2787                 0.4392                 0.5477
 IR Inten    --      1.3380                 0.5380                 8.8698

                     52                     53                     54
                      A                      A                      A
 Frequencies --    585.7540               607.8343               615.7503
 Red. masses --      1.9430                 9.7408                 4.3985
 Frc consts  --      0.3928                 2.1204                 0.9826
 IR Inten    --      0.1842                 2.6282                14.1453

                     55                     56                     57
                      A                      A                      A
 Frequencies --    634.6861               637.4411               710.0497
 Red. masses --      8.0403                 3.3400                 3.2453
 Frc consts  --      1.9083                 0.7996                 0.9640
 IR Inten    --      2.2832                10.7494                 4.8238

                     58                     59                     60
                      A                      A                      A
 Frequencies --    712.4496               719.4054               757.6363
 Red. masses --      3.7052                 2.9011                 3.3106
 Frc consts  --      1.1081                 0.8846                 1.1196
 IR Inten    --      7.5199                 2.7517                23.5842

                     61                     62                     63
                      A                      A                      A
 Frequencies --    765.0260               770.9700               790.5555
 Red. masses --      2.4885                 2.3566                 2.5326
 Frc consts  --      0.8581                 0.8253                 0.9326
 IR Inten    --      0.6518                 2.5923                 2.6082

                     64                     65                     66
                      A                      A                      A
 Frequencies --    801.2065               816.2797               828.7942
 Red. masses --      3.0670                 3.3701                10.4419
 Frc consts  --      1.1600                 1.3230                 4.2259
 IR Inten    --      3.1309                 0.9003                 8.0323

                     67                     68                     69
                      A                      A                      A
 Frequencies --    835.3066               851.6399               866.2927
 Red. masses --      3.2552                 2.2632                 2.3962
 Frc consts  --      1.3382                 0.9671                 1.0595
 IR Inten    --      2.2529                 2.1414                 0.5901

                     70                     71                     72
                      A                      A                      A
 Frequencies --    884.0329               915.8758               917.3298
 Red. masses --      2.3253                 3.2242                 3.7194
 Frc consts  --      1.0707                 1.5935                 1.8441
 IR Inten    --     15.2885                 0.7083                 1.7995

                     73                     74                     75
                      A                      A                      A
 Frequencies --    919.2894               925.0330               948.8794
 Red. masses --      4.8981                 2.5487                 2.3881
 Frc consts  --      2.4388                 1.2849                 1.2668
 IR Inten    --      6.1982                24.5645                 3.6715

                     76                     77                     78
                      A                      A                      A
 Frequencies --    968.9895               976.8386               984.0390
 Red. masses --      1.1463                 1.1808                 3.8774
 Frc consts  --      0.6342                 0.6639                 2.2122
 IR Inten    --      0.2520                 0.9434                24.5359

                     79                     80                     81
                      A                      A                      A
 Frequencies --    987.7921               997.9032              1002.7431
 Red. masses --      1.3065                 1.2255                 1.2927
 Frc consts  --      0.7511                 0.7190                 0.7658
 IR Inten    --     10.7904                 9.7923                12.3734

                     82                     83                     84
                      A                      A                      A
 Frequencies --   1006.9336              1047.8770              1057.1370
 Red. masses --      1.1257                 1.8622                 3.7757
 Frc consts  --      0.6724                 1.2047                 2.4860
 IR Inten    --     14.2243                 6.9672                 2.8432

                     85                     86                     87
                      A                      A                      A
 Frequencies --   1057.8690              1076.6886              1107.9836
 Red. masses --      1.6503                 3.5741                 2.0618
 Frc consts  --      1.0881                 2.4411                 1.4913
 IR Inten    --      4.4053                 2.4447                 4.7376

                     88                     89                     90
                      A                      A                      A
 Frequencies --   1141.7797              1189.7578              1234.4751
 Red. masses --      4.4716                 6.0515                 5.3081
 Frc consts  --      3.4346                 5.0470                 4.7660
 IR Inten    --      9.1447                 7.4039                 0.6929

                     91                     92                     93
                      A                      A                      A
 Frequencies --   1241.2888              1258.2205              1266.2015
 Red. masses --      4.7244                 7.8227                 5.1875
 Frc consts  --      4.2889                 7.2966                 4.9002
 IR Inten    --      0.8254                45.2261                 4.3122

                     94                     95                     96
                      A                      A                      A
 Frequencies --   1294.0278              1306.9837              1332.9872
 Red. masses --      6.1571                 8.7953                 6.2298
 Frc consts  --      6.0745                 8.8520                 6.5219
 IR Inten    --      4.2627                60.8320                 1.3582

                     97                     98                     99
                      A                      A                      A
 Frequencies --   1336.7409              1384.5456              1394.4267
 Red. masses --      6.7734                 7.3823                 6.7187
 Frc consts  --      7.1310                 8.3379                 7.6971
 IR Inten    --      1.7850                 0.7016                 0.4238

                    100                    101                    102
                      A                      A                      A
 Frequencies --   1409.2993              1444.5010              1602.9513
 Red. masses --      9.4467                 9.6117                 9.4059
 Frc consts  --     11.0545                11.8164                14.2394
 IR Inten    --     46.3835               131.6016                75.9126

                    103                    104                    105
                      A                      A                      A
 Frequencies --   1659.0268              1681.6642              1794.7123
 Red. masses --     10.7030                 9.9871                10.8517
 Frc consts  --     17.3565                16.6405                20.5939
 IR Inten    --    625.0221                 7.5153                60.0640

                    106                    107                    108
                      A                      A                      A
 Frequencies --   4330.8153              4334.6690              4335.4248
 Red. masses --      1.0873                 1.0871                 1.0874
 Frc consts  --     12.0156                12.0344                12.0425
 IR Inten    --     36.3356                30.1854                18.5516

                    109                    110                    111
                      A                      A                      A
 Frequencies --   4356.1456              4395.2015              4402.0606
 Red. masses --      1.0874                 1.0609                 1.0607
 Frc consts  --     12.1578                12.0750                12.1107
 IR Inten    --     16.1946                47.4468                40.5631

                    112                    113                    114
                      A                      A                      A
 Frequencies --   4409.1449              4410.0962              4413.8456
 Red. masses --      1.0596                 1.0609                 1.0602
 Frc consts  --     12.1364                12.1572                12.1689
 IR Inten    --     35.0381                42.7771                11.8538

                    115                    116                    117
                      A                      A                      A
 Frequencies --   4422.9107              4463.6138              4509.4631
 Red. masses --      1.0608                 1.0326                 1.1075
 Frc consts  --     12.2264                12.1213                13.2690
 IR Inten    --     11.9435                15.4948                20.7476

                    118                    119                    120
                      A                      A                      A
 Frequencies --   4517.8219              4525.8135              4530.5753
 Red. masses --      1.1075                 1.1076                 1.1086
 Frc consts  --     13.3190                13.3673                13.4070
 IR Inten    --     23.2924                21.0753                14.3256

                    121                    122                    123
                      A                      A                      A
 Frequencies --   4534.8975              4542.9022              4657.6420
 Red. masses --      1.1088                 1.1084                 1.1063
 Frc consts  --     13.4347                13.4781                14.1401
 IR Inten    --      9.1249                 9.8724                 9.9328

                    124                    125                    126
                      A                      A                      A
 Frequencies --   4682.4459              4990.7688              5009.2553
 Red. masses --      1.1060                 1.0862                 1.0857
 Frc consts  --     14.2873                15.9407                16.0518
 IR Inten    --      5.4257                23.6503                 1.9239

                    127                    128                    129
                      A                      A                      A
 Frequencies --   5021.7219              5030.4901              5035.8953
 Red. masses --      1.0882                 1.0896                 1.0921
 Frc consts  --     16.1685                16.2459                16.3185
 IR Inten    --      7.1891                17.8804                17.2748

 - Thermochemistry -
 -------------------
 Temperature   298.150 Kelvin.  Pressure   1.00000 Atm.
 Atom     1 has atomic number  6 and mass  12.00000

 Molecular mass:   282.18579 amu.
 Principal axes and moments of inertia in atomic units:
                           1         2         3
     Eigenvalues --  2648.49195********************
           X            0.99998   0.00126   0.00544
           Y           -0.00102   0.99897  -0.04526
           Z           -0.00549   0.04525   0.99896
 This molecule is an asymmetric top.
 Rotational symmetry number  1.
 Warning -- assumption of classical behavior for rotation
           may cause significant error
 Rotational temperatures (Kelvin)      0.03270     0.00836     0.00808
 Rotational constants (GHZ):           0.68142     0.17425     0.16840
   33 imaginary frequencies ignored.
 Zero-point vibrational energy    1031358.7 (Joules/Mol)
                                  246.50066 (Kcal/Mol)
 Warning -- explicit consideration of  21 degrees of freedom as
           vibrations may cause significant error
 Vibrational temperatures:    183.45   198.04   339.80   348.03   352.84
          (Kelvin)            393.20   434.69   476.63   517.75   540.37
                              599.36   625.82   628.84   660.13   722.76
                              736.30   783.66   813.54   842.77   874.54
                              885.93   913.17   917.14  1021.60  1025.06
                             1035.06  1090.07  1100.70  1109.25  1137.43
                             1152.76  1174.44  1192.45  1201.82  1225.32
                             1246.40  1271.93  1317.74  1319.83  1322.65
                             1330.92  1365.23  1394.16  1405.45  1415.81
                             1421.21  1435.76  1442.72  1448.75  1507.66
                             1520.98  1522.04  1549.11  1594.14  1642.77
                             1711.80  1776.13  1785.94  1810.30  1821.78
                             1861.82  1880.46  1917.87  1923.27  1992.05
                             2006.27  2027.67  2078.31  2306.29  2386.97
                             2419.54  2582.19  6231.08  6236.62  6237.71
                             6267.52  6323.71  6333.58  6343.78  6345.14
                             6350.54  6363.58  6422.14  6488.11  6500.14
                             6511.64  6518.49  6524.71  6536.22  6701.31
                             6737.00  7180.60  7207.20  7225.14  7237.75
                             7245.53

 Zero-point correction=                           0.392824 (Hartree/Particle)
 Thermal correction to Energy=                    0.405086
 Thermal correction to Enthalpy=                  0.406030
 Thermal correction to Gibbs Free Energy=         0.354988
 Sum of electronic and zero-point Energies=           -866.105678
 Sum of electronic and thermal Energies=              -866.093416
 Sum of electronic and thermal Enthalpies=            -866.092471
 Sum of electronic and thermal Free Energies=         -866.143514

                     E (Thermal)             CV                S
                      KCal/Mol        Cal/Mol-Kelvin    Cal/Mol-Kelvin
 Total                  254.195             56.694            107.428
 Electronic               0.000              0.000              0.000
 Translational            0.889              2.981             42.810
 Rotational               0.889              2.981             34.041
 Vibrational            252.418             50.732             30.577
 Vibration     1          0.611              1.926              2.983
 Vibration     2          0.614              1.916              2.836
 Vibration     3          0.655              1.785              1.832
 Vibration     4          0.658              1.776              1.789
 Vibration     5          0.660              1.771              1.765
 Vibration     6          0.676              1.723              1.575
 Vibration     7          0.694              1.670              1.405
 Vibration     8          0.714              1.613              1.254
 Vibration     9          0.734              1.555              1.123
 Vibration    10          0.746              1.522              1.057
 Vibration    11          0.780              1.434              0.904
 Vibration    12          0.796              1.394              0.843
 Vibration    13          0.797              1.389              0.836
 Vibration    14          0.817              1.341              0.770
 Vibration    15          0.858              1.245              0.652
 Vibration    16          0.867              1.224              0.629
 Vibration    17          0.900              1.151              0.555
 Vibration    18          0.921              1.106              0.513
 Vibration    19          0.943              1.062              0.475
 Vibration    20          0.967              1.015              0.436
 Vibration    21          0.975              0.999              0.423

 Normal termination of Gaussian 16 at Mon Mar  6 12:17:46 2023.
