 Gaussian 16, Revision C.01,
 Gaussian 16:  ES64L-G16RevC.01  3-Jul-2019

 ----------------------------------------------------------------------
 #p pop=(regular,nbo,savenbos) freq=noraman def2svp empiricaldispersion
 =gd3bj output=wfx pbe1pbe
 ----------------------------------------------------------------------

 ----------------------------------------
 JAQVIJ_Complex_4_Ligand_0_ON_Cu_oriented
 ----------------------------------------
 Symbolic Z-matrix:
 Charge = -1 Multiplicity = 1

                         Standard orientation:
 ---------------------------------------------------------------------
 Center     Atomic      Atomic             Coordinates (Angstroms)
 Number     Number       Type             X           Y           Z
 ---------------------------------------------------------------------
      1          6           0        2.746906   -0.077432   -0.425018
      2          6           0        4.039858   -0.512881   -0.031802
      3          6           0        5.680886   -2.236890   -0.228263
      4          1           0        5.815748   -3.063300   -0.697302
      5          1           0        5.699171   -2.397828    0.716652
      6          1           0        6.378339   -1.619443   -0.461793
      7          8           0        2.068490   -0.825174   -1.269137
      8          8           0        4.424525   -1.688254   -0.588747
      9          6           0        4.794585    0.250917    0.832446
     10          6           0        4.298107    1.439005    1.346377
     11          1           0        4.819491    1.948441    1.924914
     12          6           0        3.051821    1.860515    1.007196
     13          1           0        2.717020    2.646935    1.372922
     14          6           0        2.261016    1.115352    0.106433
     15          6           0        0.921026    1.563759   -0.176154
     16          1           0        0.569642    2.225681    0.376112
     17          7           0        0.168032    1.130964   -1.122725
     18          6           0       -1.263029    1.536861   -1.162459
     19          1           0       -1.531865    1.495733   -2.103475
     20          6           0       -2.114822    0.482385   -0.426250
     21          6           0       -1.844985    0.414412    1.074746
     22          1           0       -2.020695    1.279310    1.475726
     23          6           0       -3.605649    0.804825   -0.644629
     24          1           0       -3.805220    1.677842   -0.272657
     25          1           0       -3.794274    0.833218   -1.596250
     26          6           0       -1.493881    2.976296   -0.717117
     27          1           0       -0.938980    3.563924   -1.234454
     28          1           0       -1.271246    3.063442    0.212060
     29          1           0       -2.415862    3.207766   -0.848100
     30          6           0       -1.869513   -0.904610   -1.023875
     31          1           0       -2.052414   -0.881377   -1.976860
     32          1           0       -0.937612   -1.145899   -0.904964
     33          6           0       -2.738420   -0.644841    1.724181
     34          1           0       -2.554334   -0.676150    2.686746
     35          6           0       -2.455790   -2.008085    1.116064
     36          1           0       -1.525488   -2.245608    1.257706
     37          1           0       -3.010263   -2.679742    1.543868
     38          6           0       -2.754498   -1.960330   -0.363798
     39          1           0       -2.569339   -2.835665   -0.761942
     40          6           0       -4.214245   -1.607676   -0.578734
     41          1           0       -4.414360   -1.595944   -1.528331
     42          1           0       -4.778777   -2.274476   -0.157177
     43          6           0       -4.493959   -0.247613    0.019599
     44          1           0       -5.434319   -0.016797   -0.127921
     45          6           0       -4.214231   -0.270520    1.501649
     46          1           0       -4.789881   -0.920273    1.936153
     47          1           0       -0.913048    0.193721    1.227952
     48          1           0       -4.395395    0.601161    1.885615
     49          1           0        5.646506   -0.034690    1.073386
 ---------------------------------------------------------------------

 SCF Done:  E(RPBE1PBE) =  -980.804780639     A.U. after   17 cycles

 The electronic state is 1-A.
 Alpha  occ. eigenvalues --  -19.08320 -18.94131 -14.19935 -10.12504 -10.11445
 Alpha  occ. eigenvalues --  -10.11375 -10.11301 -10.11119 -10.10893 -10.10229
 Alpha  occ. eigenvalues --  -10.09801 -10.09362 -10.09000 -10.08814 -10.08750
 Alpha  occ. eigenvalues --  -10.08714 -10.07905 -10.06657 -10.06507 -10.05603
 Alpha  occ. eigenvalues --  -10.05255 -10.04543 -10.04410  -0.93190  -0.80400
 Alpha  occ. eigenvalues --   -0.78196  -0.76611  -0.70515  -0.70228  -0.69785
 Alpha  occ. eigenvalues --   -0.69541  -0.65480  -0.64297  -0.60996  -0.60551
 Alpha  occ. eigenvalues --   -0.59919  -0.57112  -0.55231  -0.51906  -0.51502
 Alpha  occ. eigenvalues --   -0.49786  -0.46909  -0.46403  -0.45352  -0.42720
 Alpha  occ. eigenvalues --   -0.40447  -0.39080  -0.38817  -0.38251  -0.38121
 Alpha  occ. eigenvalues --   -0.37654  -0.36848  -0.36412  -0.35044  -0.34553
 Alpha  occ. eigenvalues --   -0.33497  -0.33273  -0.32670  -0.31717  -0.31221
 Alpha  occ. eigenvalues --   -0.30904  -0.30036  -0.28348  -0.27639  -0.27032
 Alpha  occ. eigenvalues --   -0.25559  -0.24933  -0.24573  -0.24192  -0.23642
 Alpha  occ. eigenvalues --   -0.23382  -0.23167  -0.22231  -0.20898  -0.20079
 Alpha  occ. eigenvalues --   -0.18754  -0.18482  -0.18421  -0.17100  -0.15956
 Alpha  occ. eigenvalues --   -0.13389  -0.08792  -0.07925  -0.02421  -0.01103
 Alpha virt. eigenvalues --    0.13597   0.16028   0.19480   0.19550   0.19931
 Alpha virt. eigenvalues --    0.20321   0.20595   0.21344   0.22063   0.22346
 Alpha virt. eigenvalues --    0.22983   0.23436   0.24077   0.25185   0.25519

 Mulliken charges:
               1
     1  C    0.124543
     2  C    0.143887
     3  C    0.373447
     4  H   -0.036444
     5  H   -0.046480
     6  H   -0.043955
     7  O   -0.421533
     8  O   -0.359624
     9  C   -0.037269
    10  C    0.056659
    11  H   -0.155610
    12  C    0.082363
    13  H   -0.168158
    14  C   -0.089857
    15  C    0.128436
    16  H   -0.170764
    17  N   -0.207735
    18  C    0.109001
    19  H   -0.075294
    20  C   -0.496696
    21  C    0.312807
    22  H   -0.072254
    23  C    0.285415
    24  H   -0.062185
    25  H   -0.064589
    26  C    0.227050
    27  H   -0.036018
    28  H   -0.030489
    29  H   -0.062151
    30  C    0.345004
    31  H   -0.071421
    32  H   -0.015241
    33  C   -0.180574
    34  H   -0.057495
    35  C    0.266986
    36  H   -0.032816
    37  H   -0.070534
    38  C   -0.179819
    39  H   -0.053995
    40  C    0.265142
    41  H   -0.061038
    42  H   -0.069904
    43  C   -0.163434
    44  H   -0.065911
    45  C    0.255745
    46  H   -0.066066
    47  H   -0.013867
    48  H   -0.062085
    49  H   -0.175177
 Sum of Mulliken charges =  -1.00000

 Dipole moment (field-independent basis, Debye):
    X=             -7.9064    Y=             -0.1139    Z=              3.4937  Tot=              8.6447
 Quadrupole moment (field-independent basis, Debye-Ang):
   XX=           -170.2932   YY=           -144.4938   ZZ=           -149.1247
   XY=             -5.8524   XZ=              5.3810   YZ=             -2.9772

  Exact polarizability:     279.002     -16.450     197.436      24.992      14.397     163.044
 Approx polarizability:     347.729     -17.564     301.916      52.816      45.307     270.884

 Summary of Natural Population Analysis:

                                       Natural Population
                Natural  -----------------------------------------------
    Atom  No    Charge         Core      Valence    Rydberg      Total
 -----------------------------------------------------------------------
      C    1    0.35710      1.99871     3.60400    0.04019     5.64290
      C    2    0.27619      1.99866     3.69934    0.02581     5.72381
      C    3   -0.14488      1.99894     4.13510    0.01083     6.14488
      H    4    0.15695      0.00000     0.84098    0.00207     0.84305
      H    5    0.14203      0.00000     0.85320    0.00477     0.85797
      H    6    0.14156      0.00000     0.85371    0.00473     0.85844
      O    7   -0.71944      1.99980     6.71189    0.00774     8.71944
      O    8   -0.53541      1.99964     6.52407    0.01170     8.53541
      C    9   -0.30934      1.99902     4.29497    0.01535     6.30934
      C   10   -0.27212      1.99911     4.25570    0.01731     6.27212
      H   11    0.15372      0.00000     0.84279    0.00349     0.84628
      C   12   -0.18367      1.99907     4.16906    0.01554     6.18367
      H   13    0.15151      0.00000     0.84452    0.00397     0.84849
      C   14   -0.21447      1.99891     4.19631    0.01925     6.21447
      C   15    0.12386      1.99902     3.84898    0.02814     5.87614
      H   16    0.10200      0.00000     0.88964    0.00836     0.89800
      N   17   -0.50357      1.99936     5.48472    0.01948     7.50357
      C   18    0.00431      1.99887     3.97094    0.02588     5.99569
      H   19    0.17386      0.00000     0.82057    0.00558     0.82614
      C   20   -0.03974      1.99902     4.02276    0.01797     6.03974
      C   21   -0.38953      1.99901     4.37037    0.02014     6.38953
      H   22    0.18440      0.00000     0.81191    0.00368     0.81560
      C   23   -0.38458      1.99904     4.36575    0.01979     6.38458
      H   24    0.18532      0.00000     0.81081    0.00386     0.81468
      H   25    0.18790      0.00000     0.80787    0.00423     0.81210
      C   26   -0.57622      1.99918     4.56632    0.01071     6.57622
      H   27    0.19316      0.00000     0.80358    0.00326     0.80684
      H   28    0.17982      0.00000     0.81735    0.00283     0.82018
      H   29    0.17865      0.00000     0.81815    0.00319     0.82135
      C   30   -0.38140      1.99901     4.36033    0.02206     6.38140
      H   31    0.18783      0.00000     0.80849    0.00368     0.81217
      H   32    0.23063      0.00000     0.76215    0.00722     0.76937
      C   33   -0.18222      1.99908     4.16570    0.01744     6.18222
      H   34    0.18561      0.00000     0.81014    0.00425     0.81439
      C   35   -0.37884      1.99907     4.36262    0.01715     6.37884
      H   36    0.19902      0.00000     0.79725    0.00373     0.80098
      H   37    0.17789      0.00000     0.81805    0.00407     0.82211
      C   38   -0.18544      1.99907     4.16870    0.01768     6.18544
      H   39    0.18884      0.00000     0.80687    0.00429     0.81116
      C   40   -0.38025      1.99907     4.36400    0.01718     6.38025
      H   41    0.18562      0.00000     0.81048    0.00390     0.81438
      H   42    0.17920      0.00000     0.81664    0.00416     0.82080
      C   43   -0.18499      1.99907     4.16878    0.01714     6.18499
      H   44    0.18243      0.00000     0.81304    0.00454     0.81757
      C   45   -0.37839      1.99907     4.36222    0.01710     6.37839
      H   46    0.18075      0.00000     0.81523    0.00402     0.81925
      H   47    0.21352      0.00000     0.78253    0.00395     0.78648
      H   48    0.18359      0.00000     0.81252    0.00389     0.81641
      H   49    0.15725      0.00000     0.83919    0.00356     0.84275
 =======================================================================
   * Total *   -1.00000     45.97881   123.48035    0.54084   170.00000

 ******   34 imaginary frequencies (negative Signs) ******

                      1                      2                      3
                      A                      A                      A
 Frequencies --  -1473.6021             -1408.2027             -1396.5250
 Red. masses --      1.0772                 1.0094                 1.0467
 Frc consts  --      1.3782                 1.1794                 1.2027
 IR Inten    --     55.8789                 0.4353                30.5327

                      4                      5                      6
                      A                      A                      A
 Frequencies --  -1385.5867             -1371.3243             -1277.2563
 Red. masses --      1.0089                 1.0441                 1.0484
 Frc consts  --      1.1412                 1.1569                 1.0077
 IR Inten    --      0.8921                 2.4518                 1.4961

                      7                      8                      9
                      A                      A                      A
 Frequencies --  -1062.6513             -1061.5629             -1055.8032
 Red. masses --      1.0196                 1.0254                 1.0288
 Frc consts  --      0.6784                 0.6808                 0.6757
 IR Inten    --      0.6196                 1.0245                 1.1043

                     10                     11                     12
                      A                      A                      A
 Frequencies --  -1052.6242             -1049.4309             -1046.9885
 Red. masses --      1.0262                 1.0245                 1.0255
 Frc consts  --      0.6699                 0.6648                 0.6623
 IR Inten    --      0.8587                 2.3443                 0.8719

                     13                     14                     15
                      A                      A                      A
 Frequencies --  -1034.3350             -1024.7800              -950.0328
 Red. masses --      1.0564                 1.0456                 1.0806
 Frc consts  --      0.6659                 0.6469                 0.5746
 IR Inten    --      4.9491                19.5039                 2.4697

                     16                     17                     18
                      A                      A                      A
 Frequencies --   -888.8887              -883.6038              -848.5503
 Red. masses --      1.1047                 1.1192                 1.0796
 Frc consts  --      0.5143                 0.5148                 0.4580
 IR Inten    --      9.5963                 4.4696                 9.8088

                     19                     20                     21
                      A                      A                      A
 Frequencies --   -770.1151              -691.7278              -542.9882
 Red. masses --      1.0831                 1.1365                 1.2336
 Frc consts  --      0.3785                 0.3204                 0.2143
 IR Inten    --      4.9076                 0.5822                 0.3355

                     22                     23                     24
                      A                      A                      A
 Frequencies --   -539.3250              -524.4651              -507.1148
 Red. masses --      1.2538                 1.2901                 1.4607
 Frc consts  --      0.2149                 0.2091                 0.2213
 IR Inten    --      0.0351                 0.1557                 1.2982

                     25                     26                     27
                      A                      A                      A
 Frequencies --   -494.4238              -488.3217              -477.5484
 Red. masses --      1.3956                 1.4239                 1.3912
 Frc consts  --      0.2010                 0.2001                 0.1869
 IR Inten    --      0.5749                 0.6342                 1.0787

                     28                     29                     30
                      A                      A                      A
 Frequencies --   -452.6425              -445.7629              -376.7443
 Red. masses --      1.3508                 1.3973                 1.0299
 Frc consts  --      0.1631                 0.1636                 0.0861
 IR Inten    --      2.0874                 9.3175                 0.2447

                     31                     32                     33
                      A                      A                      A
 Frequencies --   -338.8681              -289.8284              -255.0209
 Red. masses --      1.2220                 1.2532                 2.5216
 Frc consts  --      0.0827                 0.0620                 0.0966
 IR Inten    --      1.2474                 2.0415                 6.7898

                     34                     35                     36
                      A                      A                      A
 Frequencies --   -119.1193                87.5144               121.3797
 Red. masses --      3.8827                11.1838                 5.4334
 Frc consts  --      0.0325                 0.0505                 0.0472
 IR Inten    --      4.9415                 4.3724                 0.4002

                     37                     38                     39
                      A                      A                      A
 Frequencies --    187.9443               200.3159               219.5976
 Red. masses --      1.3682                 4.6921                 1.6379
 Frc consts  --      0.0285                 0.1109                 0.0465
 IR Inten    --      0.2053                 0.9833                 1.7822

                     40                     41                     42
                      A                      A                      A
 Frequencies --    231.1912               267.4165               294.0603
 Red. masses --      1.5757                 1.2301                 4.4975
 Frc consts  --      0.0496                 0.0518                 0.2291
 IR Inten    --      0.5752                30.6360                 1.5132

                     43                     44                     45
                      A                      A                      A
 Frequencies --    311.1024               352.0525               370.8261
 Red. masses --      4.8058                 6.5655                 2.8685
 Frc consts  --      0.2740                 0.4794                 0.2324
 IR Inten    --      0.4720                 3.1295                 3.5235

                     46                     47                     48
                      A                      A                      A
 Frequencies --    385.7490               393.6754               399.8365
 Red. masses --      1.3574                 1.1823                 1.5318
 Frc consts  --      0.1190                 0.1080                 0.1443
 IR Inten    --      5.9545                 3.7494                 4.4154

                     49                     50                     51
                      A                      A                      A
 Frequencies --    418.2768               451.0938               476.4743
 Red. masses --      3.2361                 5.0886                 3.7390
 Frc consts  --      0.3336                 0.6101                 0.5001
 IR Inten    --      5.2276                 1.4740                 0.2267

                     52                     53                     54
                      A                      A                      A
 Frequencies --    491.3311               509.2796               541.6571
 Red. masses --      2.3128                 4.1202                 2.6412
 Frc consts  --      0.3289                 0.6296                 0.4566
 IR Inten    --      0.6786                 1.4322                 0.1830

                     55                     56                     57
                      A                      A                      A
 Frequencies --    546.8543               563.6673               589.2208
 Red. masses --      2.4433                 3.2376                 3.0769
 Frc consts  --      0.4305                 0.6061                 0.6294
 IR Inten    --      0.2488                 6.4617                24.3492

                     58                     59                     60
                      A                      A                      A
 Frequencies --    594.1473               603.5955               616.1206
 Red. masses --      2.0206                 2.6118                 7.9303
 Frc consts  --      0.4203                 0.5606                 1.7737
 IR Inten    --     30.7569                26.4605                 3.7975

                     61                     62                     63
                      A                      A                      A
 Frequencies --    645.9606               654.5190               692.7245
 Red. masses --      6.1509                 6.9655                 2.9278
 Frc consts  --      1.5122                 1.7581                 0.8278
 IR Inten    --      3.4328                 3.5698                 1.4255

                     64                     65                     66
                      A                      A                      A
 Frequencies --    698.2630               716.2400               756.2278
 Red. masses --      2.8863                 3.9977                 2.4300
 Frc consts  --      0.8291                 1.2083                 0.8188
 IR Inten    --      1.3235                 7.5760                 1.7843

                     67                     68                     69
                      A                      A                      A
 Frequencies --    757.6388               760.1472               789.5778
 Red. masses --      2.6046                 2.6694                 2.6663
 Frc consts  --      0.8809                 0.9088                 0.9794
 IR Inten    --     13.8006                10.7446                17.4879

                     70                     71                     72
                      A                      A                      A
 Frequencies --    809.7739               813.3599               819.3240
 Red. masses --      3.0591                10.1164                 3.9965
 Frc consts  --      1.1819                 3.9431                 1.5807
 IR Inten    --      3.4758                 1.5213                 6.1876

                     73                     74                     75
                      A                      A                      A
 Frequencies --    830.1634               841.5677               844.0658
 Red. masses --      2.5426                 2.5540                 2.4820
 Frc consts  --      1.0324                 1.0657                 1.0418
 IR Inten    --      7.3990                 0.1574                 0.1998

                     76                     77                     78
                      A                      A                      A
 Frequencies --    877.8343               889.0540               902.4428
 Red. masses --      3.4377                 3.1200                 3.5570
 Frc consts  --      1.5608                 1.4530                 1.7067
 IR Inten    --     13.7243                10.0832                 0.2665

                     79                     80                     81
                      A                      A                      A
 Frequencies --    906.5375               917.1642               926.8135
 Red. masses --      3.6820                 6.0246                 2.7508
 Frc consts  --      1.7828                 2.9859                 1.3922
 IR Inten    --      0.0998                 9.7851                21.8367

                     82                     83                     84
                      A                      A                      A
 Frequencies --    949.7862               963.3533               963.7432
 Red. masses --      1.7914                 1.1504                 1.1092
 Frc consts  --      0.9522                 0.6290                 0.6070
 IR Inten    --     16.4976                 2.8749                 0.9472

                     85                     86                     87
                      A                      A                      A
 Frequencies --    982.6481               988.6417               989.2304
 Red. masses --      1.2127                 1.2157                 1.1939
 Frc consts  --      0.6899                 0.7001                 0.6884
 IR Inten    --     10.2738                 9.3715                12.9150

                     88                     89                     90
                      A                      A                      A
 Frequencies --    999.0361              1013.5322              1031.8544
 Red. masses --      1.2540                 1.0558                 1.6834
 Frc consts  --      0.7374                 0.6390                 1.0560
 IR Inten    --     12.8498                13.7985                22.1321

                     91                     92                     93
                      A                      A                      A
 Frequencies --   1047.2994              1051.6761              1054.6675
 Red. masses --      1.6043                 2.2735                 4.8896
 Frc consts  --      1.0368                 1.4815                 3.2045
 IR Inten    --      2.6379                10.9878                 7.8247

                     94                     95                     96
                      A                      A                      A
 Frequencies --   1072.8033              1085.5768              1097.1207
 Red. masses --      2.8293                 2.4833                 2.4040
 Frc consts  --      1.9185                 1.7242                 1.7049
 IR Inten    --      8.7102                24.1130                 5.9118

                     97                     98                     99
                      A                      A                      A
 Frequencies --   1117.3321              1208.3293              1216.5303
 Red. masses --      3.7716                 5.6171                 6.0790
 Frc consts  --      2.7742                 4.8321                 5.3006
 IR Inten    --     14.4493                 5.3929                35.7401

                    100                    101                    102
                      A                      A                      A
 Frequencies --   1228.7327              1240.0703              1256.8926
 Red. masses --      5.6373                 4.9607                 5.7912
 Frc consts  --      5.0146                 4.4945                 5.3903
 IR Inten    --      3.0434                 1.5423                 1.2088

                    103                    104                    105
                      A                      A                      A
 Frequencies --   1260.2799              1279.4449              1280.0425
 Red. masses --      5.7971                 6.8220                 6.4386
 Frc consts  --      5.4249                 6.5797                 6.2157
 IR Inten    --      0.7571                15.7962                 4.1457

                    106                    107                    108
                      A                      A                      A
 Frequencies --   1290.3037              1292.9470              1312.5001
 Red. masses --      5.9855                 8.7096                 5.5702
 Frc consts  --      5.8713                 8.5785                 5.6535
 IR Inten    --      0.2542               133.6964                 1.0208

                    109                    110                    111
                      A                      A                      A
 Frequencies --   1357.5346              1458.7355              1474.4649
 Red. masses --      9.4081                 9.9589                 9.7434
 Frc consts  --     10.2154                12.4857                12.4804
 IR Inten    --    179.7650               336.6800               101.1398

                    112                    113                    114
                      A                      A                      A
 Frequencies --   1587.4466              1644.7079              1679.6161
 Red. masses --     10.1354                10.8904                10.5393
 Frc consts  --     15.0484                17.3569                17.5180
 IR Inten    --     92.1309                30.1507               460.6262

                    115                    116                    117
                      A                      A                      A
 Frequencies --   1714.9812              4344.6564              4349.9679
 Red. masses --     10.6598                 1.0873                 1.0869
 Frc consts  --     18.4722                12.0925                12.1174
 IR Inten    --     26.6120                23.2000                36.2167

                    118                    119                    120
                      A                      A                      A
 Frequencies --   4353.4377              4359.3747              4405.0147
 Red. masses --      1.0874                 1.0871                 1.0596
 Frc consts  --     12.1429                12.1723                12.1145
 IR Inten    --     38.5579                19.7397                26.2359

                    121                    122                    123
                      A                      A                      A
 Frequencies --   4406.5616              4408.8353              4410.9062
 Red. masses --      1.0598                 1.0599                 1.0602
 Frc consts  --     12.1253                12.1385                12.1535
 IR Inten    --     21.2974                59.1472                27.3929

                    124                    125                    126
                      A                      A                      A
 Frequencies --   4413.6118              4420.6595              4466.8005
 Red. masses --      1.0611                 1.0600                 1.0303
 Frc consts  --     12.1781                12.2047                12.1113
 IR Inten    --     31.5025                 9.3919                81.8354

                    127                    128                    129
                      A                      A                      A
 Frequencies --   4471.2160              4523.8766              4526.0304
 Red. masses --      1.0320                 1.1088                 1.1089
 Frc consts  --     12.1557                13.3694                13.3839
 IR Inten    --     15.2673                14.8143                16.9357

                    130                    131                    132
                      A                      A                      A
 Frequencies --   4528.6076              4530.5328              4535.9590
 Red. masses --      1.1087                 1.1084                 1.1088
 Frc consts  --     13.3969                13.4038                13.4408
 IR Inten    --     19.5890                17.6616                 9.3953

                    133                    134                    135
                      A                      A                      A
 Frequencies --   4541.6990              4664.7182              4674.6939
 Red. masses --      1.1088                 1.1072                 1.1064
 Frc consts  --     13.4751                14.1944                14.2453
 IR Inten    --      8.3901                18.4948                13.2734

                    136                    137                    138
                      A                      A                      A
 Frequencies --   4680.4699              4680.9147              4981.9087
 Red. masses --      1.1064                 1.1081                 1.0861
 Frc consts  --     14.2811                14.3050                15.8828
 IR Inten    --      4.6410                 8.7718                30.8095

                    139                    140                    141
                      A                      A                      A
 Frequencies --   5005.3774              5019.1914              5029.8381
 Red. masses --      1.0860                 1.0888                 1.0910
 Frc consts  --     16.0306                16.1617                16.2617
 IR Inten    --      5.4130                15.2144                15.3570

 - Thermochemistry -
 -------------------
 Temperature   298.150 Kelvin.  Pressure   1.00000 Atm.
 Atom     1 has atomic number  6 and mass  12.00000

 Molecular mass:   312.19635 amu.
 Principal axes and moments of inertia in atomic units:
                           1         2         3
     Eigenvalues --  3304.93382********************
           X            0.99999  -0.00388   0.00299
           Y            0.00390   0.99998  -0.00445
           Z           -0.00297   0.00446   0.99999
 This molecule is an asymmetric top.
 Rotational symmetry number  1.
 Warning -- assumption of classical behavior for rotation
           may cause significant error
 Rotational temperatures (Kelvin)      0.02621     0.00667     0.00606
 Rotational constants (GHZ):           0.54607     0.13893     0.12633
   34 imaginary frequencies ignored.
 Zero-point vibrational energy    1118511.4 (Joules/Mol)
                                  267.33064 (Kcal/Mol)
 Warning -- explicit consideration of  26 degrees of freedom as
           vibrations may cause significant error
 Vibrational temperatures:    125.91   174.64   270.41   288.21   315.95
          (Kelvin)            332.63   384.75   423.09   447.61   506.53
                              533.54   555.01   566.41   575.28   601.81
                              649.02   685.54   706.92   732.74   779.32
                              786.80   810.99   847.76   854.85   868.44
                              886.46   929.39   941.71   996.68  1004.64
                             1030.51  1088.04  1090.07  1093.68  1136.03
                             1165.08  1170.24  1178.82  1194.42  1210.83
                             1214.42  1263.01  1279.15  1298.41  1304.31
                             1319.59  1333.48  1366.53  1386.05  1386.61
                             1413.81  1422.43  1423.28  1437.39  1458.25
                             1484.61  1506.83  1513.13  1517.43  1543.52
                             1561.90  1578.51  1607.59  1738.52  1750.32
                             1767.87  1784.18  1808.39  1813.26  1840.84
                             1841.70  1856.46  1860.26  1888.39  1953.19
                             2098.79  2121.43  2283.98  2366.37  2416.59
                             2467.48  6250.99  6258.63  6263.63  6272.17
                             6337.83  6340.06  6343.33  6346.31  6350.20
                             6360.34  6426.73  6433.08  6508.85  6511.95
                             6515.66  6518.43  6526.23  6534.49  6711.49
                             6725.84  6734.15  6734.79  7167.86  7201.62
                             7221.50  7236.82

 Zero-point correction=                           0.426018 (Hartree/Particle)
 Thermal correction to Energy=                    0.440310
 Thermal correction to Enthalpy=                  0.441254
 Thermal correction to Gibbs Free Energy=         0.386132
 Sum of electronic and zero-point Energies=           -980.378762
 Sum of electronic and thermal Energies=              -980.364471
 Sum of electronic and thermal Enthalpies=            -980.363527
 Sum of electronic and thermal Free Energies=         -980.418649

                     E (Thermal)             CV                S
                      KCal/Mol        Cal/Mol-Kelvin    Cal/Mol-Kelvin
 Total                  276.299             65.674            116.014
 Electronic               0.000              0.000              0.000
 Translational            0.889              2.981             43.112
 Rotational               0.889              2.981             34.771
 Vibrational            274.521             59.713             38.131
 Vibration     1          0.601              1.958              3.715
 Vibration     2          0.609              1.931              3.078
 Vibration     3          0.633              1.856              2.248
 Vibration     4          0.638              1.839              2.130
 Vibration     5          0.647              1.811              1.962
 Vibration     6          0.653              1.793              1.870
 Vibration     7          0.673              1.733              1.613
 Vibration     8          0.689              1.685              1.450
 Vibration     9          0.700              1.653              1.356
 Vibration    10          0.729              1.571              1.157
 Vibration    11          0.743              1.532              1.076
 Vibration    12          0.754              1.501              1.017
 Vibration    13          0.761              1.484              0.986
 Vibration    14          0.766              1.470              0.963
 Vibration    15          0.781              1.431              0.898
 Vibration    16          0.810              1.358              0.792
 Vibration    17          0.833              1.302              0.720
 Vibration    18          0.847              1.269              0.680
 Vibration    19          0.864              1.229              0.635
 Vibration    20          0.897              1.158              0.562
 Vibration    21          0.902              1.147              0.551
 Vibration    22          0.919              1.110              0.517
 Vibration    23          0.946              1.055              0.469
 Vibration    24          0.952              1.044              0.460
 Vibration    25          0.962              1.024              0.444
 Vibration    26          0.976              0.998              0.423

 Normal termination of Gaussian 16 at Mon Mar  6 12:40:11 2023.
