 Gaussian 16, Revision C.01,
 Gaussian 16:  ES64L-G16RevC.01  3-Jul-2019

 ----------------------------------------------------------------------
 #p pop=(regular,nbo,savenbos) freq=noraman def2svp empiricaldispersion
 =gd3bj output=wfx pbe1pbe
 ----------------------------------------------------------------------

 ----------------------------------------
 JAQVEF_Complex_3_Ligand_1_ON_Cu_oriented
 ----------------------------------------
 Symbolic Z-matrix:
 Charge = -1 Multiplicity = 1

                         Standard orientation:
 ---------------------------------------------------------------------
 Center     Atomic      Atomic             Coordinates (Angstroms)
 Number     Number       Type             X           Y           Z
 ---------------------------------------------------------------------
      1          6           0        2.856904    0.495568    0.909998
      2          6           0        2.763891    0.536885   -1.503844
      3          1           0        2.309526    0.759981   -2.283932
      4          6           0        2.143481    0.788039   -0.269278
      5          6           0        0.798820    1.267243   -0.258871
      6          1           0        0.439197    1.478623   -1.089430
      7          6           0       -1.392139    1.828645    0.454065
      8          1           0       -1.739661    2.225431    1.281087
      9          6           0       -1.493878    2.927845   -0.609442
     10          1           0       -0.808249    3.582681   -0.458796
     11          1           0       -2.354747    3.347667   -0.554126
     12          1           0       -1.382370    2.542255   -1.480238
     13          6           0       -2.266853    0.578878    0.189014
     14          6           0       -2.216945   -0.369483    1.398541
     15          1           0       -1.307911   -0.680123    1.526666
     16          1           0       -2.484226    0.111480    2.196854
     17          6           0       -1.841461   -0.231980   -1.041318
     18          1           0       -1.865896    0.338047   -1.826581
     19          1           0       -0.930782   -0.542407   -0.924062
     20          6           0       -3.731889    1.017800   -0.003406
     21          1           0       -4.025470    1.514887    0.776026
     22          1           0       -3.795049    1.603487   -0.773754
     23          6           0       -2.763081   -1.432735   -1.257652
     24          1           0       -2.474263   -1.927306   -2.052120
     25          6           0       -2.696216   -2.348190   -0.036088
     26          1           0       -3.276114   -3.114186   -0.166980
     27          1           0       -1.789054   -2.670479    0.084641
     28          6           0       -3.138007   -1.570100    1.197624
     29          1           0       -3.086141   -2.152452    1.983922
     30          6           0       -4.577058   -1.096854    1.011631
     31          1           0       -5.163195   -1.860152    0.886194
     32          1           0       -4.871613   -0.614731    1.800190
     33          6           0       -4.641716   -0.187821   -0.207777
     34          1           0       -5.564493    0.120563   -0.332256
     35          6           0       -4.198375   -0.965955   -1.445304
     36          1           0       -4.779258   -1.732192   -1.578511
     37          1           0       -4.260461   -0.397887   -2.230353
     38          7           0        0.019021    1.444065    0.749598
     39          8           0        2.401502    0.765330    2.099700
     40          6           0        4.129108   -0.104894    0.798268
     41          1           0        4.603731   -0.318274    1.569231
     42          6           0        4.673873   -0.380033   -0.432680
     43          6           0        4.005128   -0.021025   -1.606835
     44          1           0        4.396665   -0.159880   -2.439770
     45          6           0        6.554007   -1.518593    0.507687
     46          1           0        6.754718   -0.798599    1.110817
     47          1           0        7.372007   -1.935025    0.224661
     48          1           0        6.002590   -2.164843    0.952042
     49          8           0        5.866224   -1.008387   -0.626525
 ---------------------------------------------------------------------

 SCF Done:  E(RPBE1PBE) =  -980.817721629     A.U. after   18 cycles

 The electronic state is 1-A.
 Alpha  occ. eigenvalues --  -19.10082 -18.94382 -14.19942 -10.13412 -10.13316
 Alpha  occ. eigenvalues --  -10.12189 -10.12114 -10.11668 -10.11324 -10.11120
 Alpha  occ. eigenvalues --  -10.10361 -10.10195 -10.09644 -10.09551 -10.09286
 Alpha  occ. eigenvalues --  -10.08734 -10.08481 -10.07799 -10.06820 -10.06444
 Alpha  occ. eigenvalues --  -10.04494 -10.04280 -10.03205  -0.94634  -0.80773
 Alpha  occ. eigenvalues --   -0.78764  -0.77075  -0.70930  -0.70631  -0.70404
 Alpha  occ. eigenvalues --   -0.69948  -0.65831  -0.64711  -0.61139  -0.60982
 Alpha  occ. eigenvalues --   -0.60401  -0.58318  -0.55057  -0.52474  -0.52048
 Alpha  occ. eigenvalues --   -0.49572  -0.47967  -0.46854  -0.45803  -0.42574
 Alpha  occ. eigenvalues --   -0.39764  -0.39608  -0.39337  -0.38914  -0.38753
 Alpha  occ. eigenvalues --   -0.38568  -0.38449  -0.36978  -0.35352  -0.34497
 Alpha  occ. eigenvalues --   -0.33790  -0.33635  -0.33099  -0.31916  -0.31695
 Alpha  occ. eigenvalues --   -0.31614  -0.30100  -0.28642  -0.28103  -0.27528
 Alpha  occ. eigenvalues --   -0.25983  -0.25405  -0.25007  -0.24820  -0.24391
 Alpha  occ. eigenvalues --   -0.23881  -0.23692  -0.22747  -0.22214  -0.21336
 Alpha  occ. eigenvalues --   -0.19649  -0.19308  -0.18922  -0.17930  -0.15542
 Alpha  occ. eigenvalues --   -0.14100  -0.08894  -0.07714  -0.02927  -0.02033
 Alpha virt. eigenvalues --    0.13573   0.15502   0.18980   0.19079   0.19407
 Alpha virt. eigenvalues --    0.20059   0.20205   0.20929   0.21434   0.22338
 Alpha virt. eigenvalues --    0.22640   0.22737   0.24332   0.24614   0.25216

 Mulliken charges:
               1
     1  C    0.165284
     2  C    0.091697
     3  H   -0.155302
     4  C   -0.086943
     5  C    0.139502
     6  H   -0.169514
     7  C    0.103131
     8  H   -0.071263
     9  C    0.225097
    10  H   -0.027820
    11  H   -0.052897
    12  H   -0.039041
    13  C   -0.487145
    14  C    0.337712
    15  H   -0.022857
    16  H   -0.067244
    17  C    0.299972
    18  H   -0.066526
    19  H   -0.017493
    20  C    0.286314
    21  H   -0.061277
    22  H   -0.060771
    23  C   -0.163005
    24  H   -0.055129
    25  C    0.254193
    26  H   -0.067729
    27  H   -0.038854
    28  C   -0.178719
    29  H   -0.053506
    30  C    0.257306
    31  H   -0.065857
    32  H   -0.057937
    33  C   -0.166674
    34  H   -0.061616
    35  C    0.252783
    36  H   -0.064015
    37  H   -0.058529
    38  N   -0.225150
    39  O   -0.427036
    40  C   -0.110505
    41  H   -0.195237
    42  C    0.272482
    43  C   -0.006648
    44  H   -0.164740
    45  C    0.368882
    46  H   -0.026829
    47  H   -0.040615
    48  H   -0.032837
    49  O   -0.407095
 Sum of Mulliken charges =  -1.00000

 Dipole moment (field-independent basis, Debye):
    X=             -9.2430    Y=             -3.1029    Z=             -3.8370  Tot=             10.4778
 Quadrupole moment (field-independent basis, Debye-Ang):
   XX=           -178.9771   YY=           -144.3264   ZZ=           -154.0821
   XY=             -8.6150   XZ=             -0.6864   YZ=             -7.5606

  Exact polarizability:     292.130     -31.864     168.468      -8.911       0.180     183.538
 Approx polarizability:     359.185     -54.401     240.970     -34.744      12.568     318.054

 Summary of Natural Population Analysis:

                                       Natural Population
                Natural  -----------------------------------------------
    Atom  No    Charge         Core      Valence    Rydberg      Total
 -----------------------------------------------------------------------
      C    1    0.42233      1.99886     3.53838    0.04042     5.57767
      C    2   -0.13876      1.99907     4.12478    0.01491     6.13876
      H    3    0.15227      0.00000     0.84378    0.00395     0.84773
      C    4   -0.23250      1.99890     4.21478    0.01882     6.23250
      C    5    0.12073      1.99901     3.85066    0.02959     5.87927
      H    6    0.10128      0.00000     0.89036    0.00837     0.89872
      C    7    0.00156      1.99887     3.97330    0.02627     5.99844
      H    8    0.17410      0.00000     0.82036    0.00553     0.82590
      C    9   -0.57516      1.99918     4.56534    0.01064     6.57516
      H   10    0.19831      0.00000     0.79819    0.00350     0.80169
      H   11    0.17877      0.00000     0.81821    0.00302     0.82123
      H   12    0.17805      0.00000     0.81930    0.00266     0.82195
      C   13   -0.04096      1.99902     4.02415    0.01779     6.04096
      C   14   -0.37811      1.99903     4.35733    0.02176     6.37811
      H   15    0.21766      0.00000     0.77719    0.00515     0.78234
      H   16    0.18882      0.00000     0.80745    0.00373     0.81118
      C   17   -0.39088      1.99901     4.37194    0.01992     6.39088
      H   18    0.18702      0.00000     0.80925    0.00373     0.81298
      H   19    0.21256      0.00000     0.78357    0.00387     0.78744
      C   20   -0.38620      1.99904     4.36754    0.01962     6.38620
      H   21    0.18841      0.00000     0.80736    0.00424     0.81159
      H   22    0.18846      0.00000     0.80776    0.00378     0.81154
      C   23   -0.18198      1.99908     4.16567    0.01724     6.18198
      H   24    0.18680      0.00000     0.80896    0.00425     0.81320
      C   25   -0.37621      1.99907     4.36002    0.01711     6.37621
      H   26    0.17827      0.00000     0.81776    0.00397     0.82173
      H   27    0.19469      0.00000     0.80167    0.00364     0.80531
      C   28   -0.18686      1.99907     4.17048    0.01730     6.18686
      H   29    0.18736      0.00000     0.80837    0.00427     0.81264
      C   30   -0.37847      1.99907     4.36239    0.01700     6.37847
      H   31    0.18037      0.00000     0.81564    0.00399     0.81963
      H   32    0.18516      0.00000     0.81097    0.00387     0.81484
      C   33   -0.18492      1.99907     4.16875    0.01710     6.18492
      H   34    0.18345      0.00000     0.81214    0.00442     0.81655
      C   35   -0.37885      1.99907     4.36272    0.01706     6.37885
      H   36    0.18154      0.00000     0.81450    0.00396     0.81846
      H   37    0.18480      0.00000     0.81130    0.00391     0.81520
      N   38   -0.51815      1.99938     5.49959    0.01918     7.51815
      O   39   -0.72156      1.99980     6.71399    0.00777     8.72156
      C   40   -0.38534      1.99887     4.36656    0.01991     6.38534
      H   41    0.17133      0.00000     0.82287    0.00580     0.82867
      C   42    0.34150      1.99878     3.63587    0.02385     5.65850
      C   43   -0.34085      1.99899     4.32265    0.01921     6.34085
      H   44    0.16763      0.00000     0.82845    0.00392     0.83237
      C   45   -0.14377      1.99894     4.13421    0.01063     6.14377
      H   46    0.14984      0.00000     0.84613    0.00403     0.85016
      H   47    0.15425      0.00000     0.84371    0.00203     0.84575
      H   48    0.15103      0.00000     0.84488    0.00409     0.84897
      O   49   -0.56880      1.99964     6.55909    0.01007     8.56880
 =======================================================================
   * Total *   -1.00000     45.97881   123.48034    0.54085   170.00000

 ******   34 imaginary frequencies (negative Signs) ******

                      1                      2                      3
                      A                      A                      A
 Frequencies --  -1461.9405             -1407.0108             -1396.8933
 Red. masses --      1.0709                 1.0170                 1.0518
 Frc consts  --      1.3486                 1.1862                 1.2092
 IR Inten    --     37.5159                 4.8083                24.4405

                      4                      5                      6
                      A                      A                      A
 Frequencies --  -1392.3865             -1385.1863             -1281.9030
 Red. masses --      1.0164                 1.0388                 1.0433
 Frc consts  --      1.1610                 1.1744                 1.0101
 IR Inten    --      1.7824                11.2782                 0.2959

                      7                      8                      9
                      A                      A                      A
 Frequencies --  -1065.4268             -1064.2764             -1058.5160
 Red. masses --      1.0222                 1.0228                 1.0178
 Frc consts  --      0.6836                 0.6825                 0.6719
 IR Inten    --      0.5773                 0.3934                 0.9504

                     10                     11                     12
                      A                      A                      A
 Frequencies --  -1056.0712             -1054.4741             -1051.7674
 Red. masses --      1.0282                 1.0301                 1.0285
 Frc consts  --      0.6757                 0.6749                 0.6703
 IR Inten    --      1.6977                 2.1110                 0.9278

                     13                     14                     15
                      A                      A                      A
 Frequencies --  -1032.3774             -1022.6431              -942.2180
 Red. masses --      1.0541                 1.0420                 1.0683
 Frc consts  --      0.6619                 0.6420                 0.5588
 IR Inten    --      4.6119                18.8511                 7.2933

                     16                     17                     18
                      A                      A                      A
 Frequencies --   -934.5771              -869.7922              -858.7208
 Red. masses --      1.0985                 1.1132                 1.0786
 Frc consts  --      0.5653                 0.4962                 0.4686
 IR Inten    --      3.1339                 4.7728                10.4365

                     19                     20                     21
                      A                      A                      A
 Frequencies --   -812.8807              -651.0982              -546.7513
 Red. masses --      1.0562                 1.1800                 1.2297
 Frc consts  --      0.4112                 0.2947                 0.2166
 IR Inten    --      5.8288                 0.6704                 0.2807

                     22                     23                     24
                      A                      A                      A
 Frequencies --   -542.3903              -534.3802              -511.8357
 Red. masses --      1.2425                 1.2262                 1.5371
 Frc consts  --      0.2154                 0.2063                 0.2373
 IR Inten    --      0.7513                 0.1737                 0.7299

                     25                     26                     27
                      A                      A                      A
 Frequencies --   -505.9531              -485.9787              -481.8350
 Red. masses --      1.3917                 1.3882                 1.3972
 Frc consts  --      0.2099                 0.1932                 0.1911
 IR Inten    --      0.8523                 1.2181                 1.5610

                     28                     29                     30
                      A                      A                      A
 Frequencies --   -461.6162              -459.8014              -390.3573
 Red. masses --      1.3660                 1.3588                 1.0209
 Frc consts  --      0.1715                 0.1693                 0.0917
 IR Inten    --      0.2897                11.5971                 0.0612

                     31                     32                     33
                      A                      A                      A
 Frequencies --   -335.0125              -324.5820              -230.2448
 Red. masses --      1.2309                 1.2442                 2.6749
 Frc consts  --      0.0814                 0.0772                 0.0835
 IR Inten    --      1.1097                 2.2887                 6.0511

                     34                     35                     36
                      A                      A                      A
 Frequencies --    -96.2116                82.1335               116.9810
 Red. masses --      4.2703                 7.0705                 7.1796
 Frc consts  --      0.0233                 0.0281                 0.0579
 IR Inten    --      4.0153                 3.1817                 1.0135

                     37                     38                     39
                      A                      A                      A
 Frequencies --    168.4883               200.0436               215.5704
 Red. masses --      1.3834                 1.6436                 3.3420
 Frc consts  --      0.0231                 0.0388                 0.0915
 IR Inten    --      0.1634                 2.2940                 0.6846

                     40                     41                     42
                      A                      A                      A
 Frequencies --    221.4468               239.6790               255.2093
 Red. masses --      1.7284                 4.4328                 1.4073
 Frc consts  --      0.0499                 0.1500                 0.0540
 IR Inten    --      2.5413                 4.7216                22.0254

                     43                     44                     45
                      A                      A                      A
 Frequencies --    288.0569               338.2621               361.4386
 Red. masses --      4.6724                 4.5365                 4.3031
 Frc consts  --      0.2284                 0.3058                 0.3312
 IR Inten    --      1.4764                 1.4439                 2.2030

                     46                     47                     48
                      A                      A                      A
 Frequencies --    370.8224               378.8864               389.4356
 Red. masses --      1.2782                 1.3731                 1.2632
 Frc consts  --      0.1036                 0.1161                 0.1129
 IR Inten    --      1.2259                10.4993                 1.6566

                     49                     50                     51
                      A                      A                      A
 Frequencies --    399.1245               453.3729               490.3552
 Red. masses --      2.7834                 4.4275                 1.7593
 Frc consts  --      0.2612                 0.5362                 0.2492
 IR Inten    --      2.8291                 1.8985                 2.4787

                     52                     53                     54
                      A                      A                      A
 Frequencies --    511.3116               521.2889               540.7822
 Red. masses --      5.1252                 5.7667                 2.4372
 Frc consts  --      0.7895                 0.9233                 0.4199
 IR Inten    --      9.7911                 4.5474                 0.3122

                     55                     56                     57
                      A                      A                      A
 Frequencies --    541.8019               584.0685               591.4015
 Red. masses --      3.3644                 3.7681                 2.5862
 Frc consts  --      0.5819                 0.7573                 0.5329
 IR Inten    --      1.1164                 2.2101                 1.5049

                     58                     59                     60
                      A                      A                      A
 Frequencies --    595.0224               609.6915               618.1151
 Red. masses --      5.7795                 8.9442                 1.5752
 Frc consts  --      1.2056                 1.9589                 0.3546
 IR Inten    --     10.2782                 5.3018                58.3706

                     61                     62                     63
                      A                      A                      A
 Frequencies --    660.5146               690.5259               695.1589
 Red. masses --      3.4395                 2.9640                 2.8724
 Frc consts  --      0.8841                 0.8327                 0.8178
 IR Inten    --      1.5334                 2.0934                 1.9434

                     64                     65                     66
                      A                      A                      A
 Frequencies --    704.7301               727.2127               748.4891
 Red. masses --      4.9397                 9.9308                 2.6780
 Frc consts  --      1.4454                 3.0943                 0.8840
 IR Inten    --     31.5316                 3.2232                 6.3014

                     67                     68                     69
                      A                      A                      A
 Frequencies --    752.6204               755.6551               782.9725
 Red. masses --      2.6616                 2.3247                 2.8850
 Frc consts  --      0.8883                 0.7821                 1.0420
 IR Inten    --      9.0408                 7.0681                 8.3900

                     70                     71                     72
                      A                      A                      A
 Frequencies --    789.9652               815.0009               826.8376
 Red. masses --      3.4959                 2.9877                 7.9461
 Frc consts  --      1.2854                 1.1692                 3.2007
 IR Inten    --      1.9313                 5.6856                12.7222

                     73                     74                     75
                      A                      A                      A
 Frequencies --    833.2002               836.4640               840.5466
 Red. masses --      3.0048                 2.6612                 2.7058
 Frc consts  --      1.2290                 1.0970                 1.1263
 IR Inten    --      1.0158                 0.4883                 0.5035

                     76                     77                     78
                      A                      A                      A
 Frequencies --    845.5404               877.5971               898.4890
 Red. masses --      3.6860                 2.9234                 3.6131
 Frc consts  --      1.5527                 1.3266                 1.7185
 IR Inten    --      6.3688                10.5959                 0.1040

                     79                     80                     81
                      A                      A                      A
 Frequencies --    901.9413               924.4111               946.2099
 Red. masses --      3.7182                 2.8335                 1.6375
 Frc consts  --      1.7821                 1.4266                 0.8638
 IR Inten    --      0.0131                14.5184                 8.4426

                     82                     83                     84
                      A                      A                      A
 Frequencies --    956.5514               961.3166               969.7077
 Red. masses --      1.1268                 1.1280                 4.0128
 Frc consts  --      0.6074                 0.6142                 2.2232
 IR Inten    --      0.1962                 1.4561                12.1336

                     85                     86                     87
                      A                      A                      A
 Frequencies --    980.8228               983.4942               985.3555
 Red. masses --      1.1173                 1.1171                 1.3682
 Frc consts  --      0.6333                 0.6366                 0.7827
 IR Inten    --     11.6750                15.0287                 7.2734

                     88                     89                     90
                      A                      A                      A
 Frequencies --    990.2446              1018.6763              1029.9873
 Red. masses --      1.3255                 1.2163                 1.4233
 Frc consts  --      0.7658                 0.7437                 0.8896
 IR Inten    --     17.6618                14.0179                11.8560

                     91                     92                     93
                      A                      A                      A
 Frequencies --   1038.3978              1046.2002              1054.3720
 Red. masses --      1.7242                 3.2320                 3.5943
 Frc consts  --      1.0954                 2.0842                 2.3542
 IR Inten    --      4.2881                19.9252                 3.1848

                     94                     95                     96
                      A                      A                      A
 Frequencies --   1070.3186              1087.1535              1098.6678
 Red. masses --      3.1822                 2.6141                 1.9632
 Frc consts  --      2.1479                 1.8203                 1.3962
 IR Inten    --      6.7125                13.4593                57.1267

                     97                     98                     99
                      A                      A                      A
 Frequencies --   1106.8756              1176.0643              1208.3447
 Red. masses --      3.1895                 5.3374                 5.9809
 Frc consts  --      2.3023                 4.3495                 5.1451
 IR Inten    --     10.2193                76.1300                 4.9350

                    100                    101                    102
                      A                      A                      A
 Frequencies --   1228.7030              1230.4901              1247.5896
 Red. masses --      4.8109                 4.8902                 6.0948
 Frc consts  --      4.2793                 4.3624                 5.5892
 IR Inten    --      1.9515                 0.6594                 0.3705

                    103                    104                    105
                      A                      A                      A
 Frequencies --   1253.2543              1253.5292              1258.4457
 Red. masses --      6.1911                 5.9644                 5.8667
 Frc consts  --      5.7292                 5.5219                 5.4741
 IR Inten    --      0.2779                 0.7302                 0.9334

                    106                    107                    108
                      A                      A                      A
 Frequencies --   1267.5200              1296.2752              1330.5459
 Red. masses --      6.3863                 5.3711                 8.7164
 Frc consts  --      6.0452                 5.3175                 9.0918
 IR Inten    --      7.4456                 2.7058               108.9183

                    109                    110                    111
                      A                      A                      A
 Frequencies --   1378.5355              1469.0230              1507.5428
 Red. masses --      9.1764                10.6460                10.5940
 Frc consts  --     10.2744                13.5361                14.1857
 IR Inten    --    311.1621                82.4971                82.0728

                    112                    113                    114
                      A                      A                      A
 Frequencies --   1543.7632              1669.7791              1676.0716
 Red. masses --      9.6042                10.3101                10.8444
 Frc consts  --     13.4857                16.9367                17.9490
 IR Inten    --    155.6114               595.5944               513.8727

                    115                    116                    117
                      A                      A                      A
 Frequencies --   1701.5254              4336.0773              4336.1982
 Red. masses --     10.5087                 1.0871                 1.0876
 Frc consts  --     17.9257                12.0428                12.0486
 IR Inten    --    161.0583                43.0940                33.7223

                    118                    119                    120
                      A                      A                      A
 Frequencies --   4353.3109              4359.3078              4401.2234
 Red. masses --      1.0873                 1.0871                 1.0598
 Frc consts  --     12.1402                12.1723                12.0953
 IR Inten    --     23.0643                18.9276                34.6122

                    121                    122                    123
                      A                      A                      A
 Frequencies --   4408.0796              4413.9432              4414.5944
 Red. masses --      1.0598                 1.0599                 1.0598
 Frc consts  --     12.1328                12.1667                12.1689
 IR Inten    --     37.1275                24.5023                46.7405

                    124                    125                    126
                      A                      A                      A
 Frequencies --   4416.2574              4426.4003              4467.3173
 Red. masses --      1.0606                 1.0606                 1.0305
 Frc consts  --     12.1874                12.2438                12.1170
 IR Inten    --      8.4541                11.0330                59.1600

                    127                    128                    129
                      A                      A                      A
 Frequencies --   4472.6416              4519.4929              4526.8508
 Red. masses --      1.0320                 1.1089                 1.1089
 Frc consts  --     12.1629                13.3450                13.3880
 IR Inten    --     14.2668                16.7335                16.8740

                    130                    131                    132
                      A                      A                      A
 Frequencies --   4533.7803              4534.4128              4539.2963
 Red. masses --      1.1091                 1.1085                 1.1080
 Frc consts  --     13.4321                13.4283                13.4511
 IR Inten    --     19.2777                13.5025                 7.0007

                    133                    134                    135
                      A                      A                      A
 Frequencies --   4548.8341              4666.3625              4675.1617
 Red. masses --      1.1087                 1.1077                 1.1067
 Frc consts  --     13.5167                14.2112                14.2519
 IR Inten    --      7.3411                 8.9227                10.8575

                    136                    137                    138
                      A                      A                      A
 Frequencies --   4680.5327              4684.6005              4999.3940
 Red. masses --      1.1079                 1.1064                 1.0861
 Frc consts  --     14.2997                14.3061                15.9935
 IR Inten    --      9.4659                 5.7491                28.1680

                    139                    140                    141
                      A                      A                      A
 Frequencies --   5012.5957              5027.2900              5029.2513
 Red. masses --      1.0871                 1.0905                 1.0886
 Frc consts  --     16.0929                16.2380                16.2228
 IR Inten    --      1.8181                 9.3738                 1.7479

 - Thermochemistry -
 -------------------
 Temperature   298.150 Kelvin.  Pressure   1.00000 Atm.
 Atom     1 has atomic number  6 and mass  12.00000

 Molecular mass:   312.19635 amu.
 Principal axes and moments of inertia in atomic units:
                           1         2         3
     Eigenvalues --  3038.80739********************
           X            0.99999  -0.00390   0.00277
           Y            0.00407   0.99786  -0.06526
           Z           -0.00251   0.06527   0.99786
 This molecule is an asymmetric top.
 Rotational symmetry number  1.
 Warning -- assumption of classical behavior for rotation
           may cause significant error
 Rotational temperatures (Kelvin)      0.02850     0.00578     0.00555
 Rotational constants (GHZ):           0.59390     0.12048     0.11569
   34 imaginary frequencies ignored.
 Zero-point vibrational energy    1117283.6 (Joules/Mol)
                                  267.03718 (Kcal/Mol)
 Warning -- explicit consideration of  26 degrees of freedom as
           vibrations may cause significant error
 Vibrational temperatures:    118.17   168.31   242.42   287.82   310.16
          (Kelvin)            318.61   344.84   367.19   414.45   486.68
                              520.03   533.53   545.13   560.31   574.25
                              652.30   705.51   735.66   750.02   778.06
                              779.53   840.34   850.89   856.10   877.21
                              889.33   950.33   993.51  1000.18  1013.95
                             1046.30  1076.91  1082.85  1087.22  1126.52
                             1136.58  1172.60  1189.63  1198.79  1203.49
                             1209.36  1216.54  1262.67  1292.73  1297.69
                             1330.02  1361.39  1376.26  1383.12  1395.19
                             1411.19  1415.03  1417.71  1424.74  1465.65
                             1481.92  1494.02  1505.25  1517.01  1539.95
                             1564.17  1580.74  1592.55  1692.09  1738.54
                             1767.83  1770.40  1795.00  1803.15  1803.55
                             1810.62  1823.68  1865.05  1914.36  1983.41
                             2113.60  2169.02  2221.13  2402.44  2411.49
                             2448.12  6238.65  6238.82  6263.44  6272.07
                             6332.38  6342.24  6350.68  6351.62  6354.01
                             6368.60  6427.47  6435.13  6502.54  6513.13
                             6523.10  6524.01  6531.03  6544.76  6713.85
                             6726.51  6734.24  6740.10  7193.01  7212.01
                             7233.15  7235.97

 Zero-point correction=                           0.425551 (Hartree/Particle)
 Thermal correction to Energy=                    0.440065
 Thermal correction to Enthalpy=                  0.441009
 Thermal correction to Gibbs Free Energy=         0.385235
 Sum of electronic and zero-point Energies=           -980.392171
 Sum of electronic and thermal Energies=              -980.377657
 Sum of electronic and thermal Enthalpies=            -980.376712
 Sum of electronic and thermal Free Energies=         -980.432487

                     E (Thermal)             CV                S
                      KCal/Mol        Cal/Mol-Kelvin    Cal/Mol-Kelvin
 Total                  276.145             65.956            117.387
 Electronic               0.000              0.000              0.000
 Translational            0.889              2.981             43.112
 Rotational               0.889              2.981             34.917
 Vibrational            274.368             59.995             39.358
 Vibration     1          0.600              1.961              3.839
 Vibration     2          0.608              1.935              3.150
 Vibration     3          0.625              1.881              2.452
 Vibration     4          0.638              1.840              2.133
 Vibration     5          0.645              1.817              1.996
 Vibration     6          0.648              1.808              1.947
 Vibration     7          0.657              1.780              1.805
 Vibration     8          0.666              1.754              1.694
 Vibration     9          0.685              1.696              1.485
 Vibration    10          0.719              1.599              1.220
 Vibration    11          0.736              1.552              1.116
 Vibration    12          0.743              1.532              1.076
 Vibration    13          0.749              1.515              1.044
 Vibration    14          0.757              1.493              1.002
 Vibration    15          0.765              1.472              0.966
 Vibration    16          0.812              1.353              0.786
 Vibration    17          0.846              1.271              0.683
 Vibration    18          0.866              1.225              0.630
 Vibration    19          0.876              1.203              0.607
 Vibration    20          0.896              1.160              0.564
 Vibration    21          0.897              1.158              0.561
 Vibration    22          0.941              1.066              0.478
 Vibration    23          0.949              1.050              0.465
 Vibration    24          0.953              1.042              0.458
 Vibration    25          0.969              1.011              0.433
 Vibration    26          0.978              0.994              0.420

 Normal termination of Gaussian 16 at Mon Mar  6 12:39:20 2023.
