 Gaussian 16, Revision C.01,
 Gaussian 16:  ES64L-G16RevC.01  3-Jul-2019

 ----------------------------------------------------------------------
 #p pop=(regular,nbo,savenbos) freq=noraman def2svp empiricaldispersion
 =gd3bj output=wfx pbe1pbe
 ----------------------------------------------------------------------

 ----------------------------------------
 JILZOW_Complex_1_Ligand_0_NN_Cu_oriented
 ----------------------------------------
 Symbolic Z-matrix:
 Charge =  0 Multiplicity = 1

                         Standard orientation:
 ---------------------------------------------------------------------
 Center     Atomic      Atomic             Coordinates (Angstroms)
 Number     Number       Type             X           Y           Z
 ---------------------------------------------------------------------
      1          7           0       -1.102757   -0.802575   -0.220863
      2          7           0        1.102757    0.802575   -0.220863
      3          1           0       -1.689542   -0.139701   -0.297008
      4          1           0        1.689542    0.139701   -0.297008
      5          7           0       -0.945392    4.963513   -0.234400
      6          6           0       -0.329486   -0.680256    1.046528
      7          6           0        0.329486    0.680256    1.046528
      8          1           0        0.376629   -1.359073    1.043144
      9          1           0       -0.376629    1.359073    1.043144
     10          6           0       -1.172095   -0.890272    2.300380
     11          6           0        1.172095    0.890272    2.300380
     12          1           0       -1.539116   -1.786828    2.295304
     13          1           0        1.539116    1.786828    2.295304
     14          6           0       -0.339784   -0.691607    3.561002
     15          6           0        0.339784    0.691607    3.561002
     16          6           0       -1.582585   -2.186478   -0.540671
     17          6           0        1.582585    2.186478   -0.540671
     18          1           0       -2.198848   -2.143992   -1.288584
     19          1           0        2.198848    2.143992   -1.288584
     20          1           0        2.065587    2.537741    0.223316
     21          6           0        0.053036    4.102675   -0.008503
     22          1           0        0.508877    4.173535    0.799479
     23          6           0        0.456416    3.119911   -0.883324
     24          6           0       -0.209896    3.051289   -2.107565
     25          1           0        0.042254    2.421868   -2.743798
     26          6           0       -1.245263    3.921506   -2.367304
     27          1           0       -1.705450    3.887494   -3.174441
     28          6           0       -1.582585    4.848697   -1.395187
     29          1           0       -2.295911    5.424367   -1.563552
     30          7           0        0.945392   -4.963513   -0.234400
     31          6           0       -0.053036   -4.102675   -0.008503
     32          1           0       -0.508877   -4.173535    0.799479
     33          6           0       -0.456416   -3.119911   -0.883324
     34          6           0        0.209896   -3.051289   -2.107565
     35          6           0        1.245263   -3.921506   -2.367304
     36          1           0        1.705450   -3.887494   -3.174441
     37          6           0        1.582585   -4.848697   -1.395187
     38          1           0       -0.916443   -0.764426    4.337681
     39          1           0        0.916443    0.764426    4.337681
     40          1           0       -2.065587   -2.537741    0.223316
     41          1           0       -0.042254   -2.421868   -2.743798
     42          1           0        2.295911   -5.424367   -1.563552
     43          1           0       -1.912181   -0.263642    2.300381
     44          1           0        1.912181    0.263642    2.300381
     45          1           0       -0.337218    1.381909    3.622765
     46          1           0        0.337218   -1.381909    3.622765
 ---------------------------------------------------------------------

 SCF Done:  E(RPBE1PBE) =  -917.240450098     A.U. after   14 cycles

 The electronic state is 1-A.
 Alpha  occ. eigenvalues --  -14.38098 -14.38098 -14.35116 -14.35112 -10.24758
 Alpha  occ. eigenvalues --  -10.24758 -10.24556 -10.24556 -10.24076 -10.24076
 Alpha  occ. eigenvalues --  -10.23850 -10.23849 -10.23660 -10.23641 -10.23261
 Alpha  occ. eigenvalues --  -10.23260 -10.22469 -10.22469 -10.19788 -10.19778
 Alpha  occ. eigenvalues --  -10.19501 -10.19501  -0.96280  -0.96251  -0.93744
 Alpha  occ. eigenvalues --   -0.90705  -0.85331  -0.83029  -0.82992  -0.80373
 Alpha  occ. eigenvalues --   -0.80110  -0.77287  -0.75839  -0.71559  -0.70749
 Alpha  occ. eigenvalues --   -0.66904  -0.66841  -0.65318  -0.64387  -0.63063
 Alpha  occ. eigenvalues --   -0.62713  -0.61114  -0.56915  -0.56912  -0.53737
 Alpha  occ. eigenvalues --   -0.51731  -0.51453  -0.50659  -0.50064  -0.49538
 Alpha  occ. eigenvalues --   -0.49068  -0.47510  -0.47171  -0.46818  -0.45576
 Alpha  occ. eigenvalues --   -0.45058  -0.43959  -0.43443  -0.42353  -0.42085
 Alpha  occ. eigenvalues --   -0.41440  -0.41368  -0.41261  -0.39513  -0.38807
 Alpha  occ. eigenvalues --   -0.38411  -0.37814  -0.37543  -0.36809  -0.34824
 Alpha  occ. eigenvalues --   -0.33941  -0.32379  -0.29754  -0.29698  -0.27411
 Alpha  occ. eigenvalues --   -0.27296  -0.26351  -0.26350  -0.23169  -0.20383
 Alpha virt. eigenvalues --   -0.02402  -0.02271  -0.00742  -0.00694   0.07160
 Alpha virt. eigenvalues --    0.08439   0.09005   0.09013   0.11214   0.11369
 Alpha virt. eigenvalues --    0.11825   0.12166   0.12807   0.14159   0.14320

 Mulliken charges:
               1
     1  N   -0.263696
     2  N   -0.263696
     3  H    0.056853
     4  H    0.056853
     5  N   -0.184107
     6  C    0.029573
     7  C    0.029573
     8  H   -0.042317
     9  H   -0.042317
    10  C    0.157661
    11  C    0.157661
    12  H   -0.033606
    13  H   -0.033606
    14  C    0.073181
    15  C    0.073181
    16  C    0.413788
    17  C    0.413788
    18  H   -0.032779
    19  H   -0.032779
    20  H   -0.060492
    21  C    0.189176
    22  H   -0.100064
    23  C   -0.233970
    24  C    0.179511
    25  H   -0.102557
    26  C    0.036552
    27  H   -0.087511
    28  C    0.179129
    29  H   -0.073096
    30  N   -0.184107
    31  C    0.189176
    32  H   -0.100064
    33  C   -0.233970
    34  C    0.179511
    35  C    0.036552
    36  H   -0.087511
    37  C    0.179129
    38  H   -0.027442
    39  H   -0.027442
    40  H   -0.060492
    41  H   -0.102557
    42  H   -0.073096
    43  H   -0.044950
    44  H   -0.044950
    45  H   -0.028839
    46  H   -0.028839
 Sum of Mulliken charges =  -0.00000

 Dipole moment (field-independent basis, Debye):
    X=              0.0000    Y=              0.0000    Z=             -1.5607  Tot=              1.5607
 Quadrupole moment (field-independent basis, Debye-Ang):
   XX=           -121.9607   YY=           -157.4819   ZZ=           -118.5621
   XY=              4.3791   XZ=             -0.0000   YZ=             -0.0000

  Exact polarizability:     162.852     -30.259     197.414       0.000      -0.000     191.036
 Approx polarizability:     257.058     -52.819     267.783      -0.000      -0.000     289.105

 Summary of Natural Population Analysis:

                                       Natural Population
                Natural  -----------------------------------------------
    Atom  No    Charge         Core      Valence    Rydberg      Total
 -----------------------------------------------------------------------
      N    1   -0.66986      1.99933     5.65115    0.01938     7.66986
      N    2   -0.66986      1.99933     5.65115    0.01938     7.66986
      H    3    0.33451      0.00000     0.65939    0.00610     0.66549
      H    4    0.33451      0.00000     0.65939    0.00610     0.66549
      N    5   -0.47450      1.99939     5.45728    0.01783     7.47450
      C    6   -0.00066      1.99895     3.98229    0.01942     6.00066
      C    7   -0.00066      1.99895     3.98229    0.01942     6.00066
      H    8    0.17687      0.00000     0.81752    0.00561     0.82313
      H    9    0.17687      0.00000     0.81752    0.00561     0.82313
      C   10   -0.38409      1.99905     4.37069    0.01434     6.38409
      C   11   -0.38409      1.99905     4.37069    0.01434     6.38409
      H   12    0.18882      0.00000     0.80775    0.00343     0.81118
      H   13    0.18882      0.00000     0.80775    0.00343     0.81118
      C   14   -0.35683      1.99909     4.34523    0.01250     6.35683
      C   15   -0.35683      1.99909     4.34523    0.01250     6.35683
      C   16   -0.16379      1.99894     4.14727    0.01758     6.16379
      C   17   -0.16379      1.99894     4.14727    0.01758     6.16379
      H   18    0.19511      0.00000     0.80201    0.00287     0.80489
      H   19    0.19511      0.00000     0.80201    0.00287     0.80489
      H   20    0.16465      0.00000     0.83070    0.00465     0.83535
      C   21    0.09235      1.99894     3.88642    0.02229     5.90765
      H   22    0.14940      0.00000     0.84769    0.00291     0.85060
      C   23   -0.07102      1.99902     4.05602    0.01598     6.07102
      C   24   -0.12340      1.99901     4.10848    0.01591     6.12340
      H   25    0.17271      0.00000     0.82354    0.00376     0.82729
      C   26   -0.20577      1.99911     4.19362    0.01304     6.20577
      H   27    0.17304      0.00000     0.82380    0.00316     0.82696
      C   28    0.10389      1.99913     3.87581    0.02117     5.89611
      H   29    0.14826      0.00000     0.84876    0.00298     0.85174
      N   30   -0.47450      1.99939     5.45728    0.01783     7.47450
      C   31    0.09235      1.99894     3.88642    0.02229     5.90765
      H   32    0.14940      0.00000     0.84769    0.00291     0.85060
      C   33   -0.07102      1.99902     4.05602    0.01598     6.07102
      C   34   -0.12340      1.99901     4.10848    0.01591     6.12340
      C   35   -0.20577      1.99911     4.19362    0.01304     6.20577
      H   36    0.17304      0.00000     0.82380    0.00316     0.82696
      C   37    0.10389      1.99913     3.87581    0.02117     5.89611
      H   38    0.19012      0.00000     0.80632    0.00356     0.80988
      H   39    0.19012      0.00000     0.80632    0.00356     0.80988
      H   40    0.16465      0.00000     0.83070    0.00465     0.83535
      H   41    0.17271      0.00000     0.82354    0.00376     0.82729
      H   42    0.14826      0.00000     0.84876    0.00298     0.85174
      H   43    0.18143      0.00000     0.81394    0.00462     0.81857
      H   44    0.18143      0.00000     0.81394    0.00462     0.81857
      H   45    0.17874      0.00000     0.81731    0.00395     0.82126
      H   46    0.17874      0.00000     0.81731    0.00395     0.82126
 =======================================================================
   * Total *   -0.00000     43.97993   115.54599    0.47408   160.00000

 ******   41 imaginary frequencies (negative Signs) ******

                      1                      2                      3
                      B                      A                      A
 Frequencies --  -1619.2462             -1614.0639             -1435.5750
 Red. masses --      1.0827                 1.0730                 1.0724
 Frc consts  --      1.6725                 1.6470                 1.3021
 IR Inten    --    126.3414               106.4677                16.3636

                      4                      5                      6
                      B                      A                      B
 Frequencies --  -1434.5777             -1319.5172             -1316.8448
 Red. masses --      1.0785                 1.0310                 1.0373
 Frc consts  --      1.3077                 1.0577                 1.0598
 IR Inten    --     69.7672                 0.1239                 1.9543

                      7                      8                      9
                      B                      A                      A
 Frequencies --  -1295.2869             -1294.5433             -1223.7105
 Red. masses --      1.0290                 1.0321                 1.0327
 Frc consts  --      1.0172                 1.0191                 0.9111
 IR Inten    --      0.6018                 0.0093                 0.4784

                     10                     11                     12
                      B                      B                      A
 Frequencies --  -1223.5038             -1119.4628             -1094.6443
 Red. masses --      1.0334                 1.0425                 1.0229
 Frc consts  --      0.9114                 0.7698                 0.7222
 IR Inten    --      0.2107                 4.9071                 1.3381

                     13                     14                     15
                      B                      A                      B
 Frequencies --  -1071.8973             -1067.4306             -1064.2643
 Red. masses --      1.0264                 1.0272                 1.0373
 Frc consts  --      0.6948                 0.6896                 0.6922
 IR Inten    --      4.0683                 3.0076                 0.4689

                     16                     17                     18
                      A                      B                      A
 Frequencies --  -1049.9123              -942.4699              -942.4515
 Red. masses --      1.0259                 1.0986                 1.0988
 Frc consts  --      0.6663                 0.5749                 0.5750
 IR Inten    --      3.0299                 0.7852                 3.9520

                     19                     20                     21
                      A                      B                      A
 Frequencies --   -828.5217              -819.9378              -786.4877
 Red. masses --      1.0909                 1.1099                 1.1264
 Frc consts  --      0.4412                 0.4396                 0.4105
 IR Inten    --      9.3107                10.2637                 3.8121

                     22                     23                     24
                      B                      A                      B
 Frequencies --   -783.9213              -696.6434              -690.6475
 Red. masses --      1.1597                 1.1347                 1.1295
 Frc consts  --      0.4199                 0.3244                 0.3174
 IR Inten    --     15.4457                 1.0305                 2.7945

                     25                     26                     27
                      A                      B                      B
 Frequencies --   -636.6029              -634.6908              -608.4754
 Red. masses --      1.1254                 1.1454                 1.1230
 Frc consts  --      0.2687                 0.2718                 0.2450
 IR Inten    --      9.2422                18.2118                 0.4265

                     28                     29                     30
                      A                      A                      B
 Frequencies --   -588.3961              -564.4227              -537.6700
 Red. masses --      1.2362                 1.2089                 1.4049
 Frc consts  --      0.2522                 0.2269                 0.2393
 IR Inten    --      0.2973                 1.2036                 0.2642

                     31                     32                     33
                      B                      A                      B
 Frequencies --   -492.5067              -430.6759              -388.5680
 Red. masses --      1.3815                 1.8047                 1.6640
 Frc consts  --      0.1974                 0.1972                 0.1480
 IR Inten    --      3.9980                 0.5679                 4.5332

                     34                     35                     36
                      A                      B                      B
 Frequencies --   -385.4505              -338.4260              -329.7958
 Red. masses --      1.5359                 1.5165                 1.3127
 Frc consts  --      0.1344                 0.1023                 0.0841
 IR Inten    --      0.7631                 0.8018                 3.5096

                     37                     38                     39
                      A                      B                      A
 Frequencies --   -309.7672              -216.7184              -187.8921
 Red. masses --      2.1679                 1.5051                 1.3109
 Frc consts  --      0.1226                 0.0416                 0.0273
 IR Inten    --      2.1601                 2.3634                 3.4073

                     40                     41                     42
                      B                      A                      B
 Frequencies --   -101.3826               -35.4456               168.9729
 Red. masses --      3.0815                 4.6131                 8.8509
 Frc consts  --      0.0187                 0.0034                 0.1489
 IR Inten    --      2.4767                 0.7664                 3.1623

                     43                     44                     45
                      A                      A                      B
 Frequencies --    183.1984               249.0041               299.5642
 Red. masses --      8.8223                 4.8373                 3.3146
 Frc consts  --      0.1745                 0.1767                 0.1753
 IR Inten    --      0.3431                 0.4516                 2.9863

                     46                     47                     48
                      A                      B                      A
 Frequencies --    340.1498               352.9177               365.2835
 Red. masses --      3.5281                 4.7366                 3.2227
 Frc consts  --      0.2405                 0.3476                 0.2534
 IR Inten    --      0.1221                 0.7463                 2.3041

                     49                     50                     51
                      A                      B                      A
 Frequencies --    463.8929               474.7688               482.4855
 Red. masses --      4.3711                 3.6910                 3.3903
 Frc consts  --      0.5542                 0.4902                 0.4650
 IR Inten    --      1.5014                11.2413                 0.4620

                     52                     53                     54
                      B                      A                      B
 Frequencies --    482.8049               531.8318               532.3281
 Red. masses --      3.3799                10.1071                 9.9936
 Frc consts  --      0.4642                 1.6843                 1.6685
 IR Inten    --      0.4461                 0.0468                 1.5272

                     55                     56                     57
                      A                      B                      A
 Frequencies --    623.8541               646.1409               656.8978
 Red. masses --      1.3462                 2.4729                 1.8787
 Frc consts  --      0.3087                 0.6083                 0.4776
 IR Inten    --      1.0170                 5.8784                 0.0656

                     58                     59                     60
                      B                      A                      A
 Frequencies --    686.1849               691.0804               691.6274
 Red. masses --      4.6159                 3.7176                 3.4050
 Frc consts  --      1.2805                 1.0461                 0.9597
 IR Inten    --      1.7614                 0.3898                 0.2477

                     61                     62                     63
                      B                      A                      B
 Frequencies --    698.5119               730.6866               730.7249
 Red. masses --      4.0243                 3.5842                 2.1389
 Frc consts  --      1.1569                 1.1275                 0.6729
 IR Inten    --      5.6544                11.1427                 3.4021

                     64                     65                     66
                      B                      A                      A
 Frequencies --    739.9493               747.3925               765.7353
 Red. masses --      3.4916                 2.4850                 3.3373
 Frc consts  --      1.1264                 0.8179                 1.1529
 IR Inten    --     22.1026                 1.5684                 6.0377

                     67                     68                     69
                      B                      B                      A
 Frequencies --    768.2545               783.1790               806.5255
 Red. masses --      3.2322                 3.5350                 2.8693
 Frc consts  --      1.1240                 1.2775                 1.0997
 IR Inten    --     19.4871                 1.6158                 9.2493

                     70                     71                     72
                      A                      B                      B
 Frequencies --    835.3483               837.8847               854.2399
 Red. masses --      4.4470                 6.9400                 2.4117
 Frc consts  --      1.8283                 2.8706                 1.0369
 IR Inten    --      1.0439                 6.0761                 0.0526

                     73                     74                     75
                      A                      A                      B
 Frequencies --    870.5324               893.0418               901.2962
 Red. masses --      2.3652                 3.9232                 3.1531
 Frc consts  --      1.0561                 1.8435                 1.5091
 IR Inten    --      7.8686                 1.6269                10.5199

                     76                     77                     78
                      B                      A                      B
 Frequencies --    915.8309               932.2628               939.5494
 Red. masses --      3.9949                 3.5417                 2.7375
 Frc consts  --      1.9742                 1.8136                 1.4238
 IR Inten    --      4.8789                 1.6626                33.6941

                     79                     80                     81
                      A                      B                      A
 Frequencies --    954.9438               963.2970               975.3182
 Red. masses --      1.2150                 1.2371                 1.6016
 Frc consts  --      0.6528                 0.6764                 0.8976
 IR Inten    --      2.1549                15.4642                 0.0094

                     82                     83                     84
                      B                      A                      B
 Frequencies --    985.4661               986.2839              1018.3602
 Red. masses --      1.2903                 1.4640                 1.4490
 Frc consts  --      0.7383                 0.8391                 0.8853
 IR Inten    --      0.3086                 8.4250                12.7045

                     85                     86                     87
                      A                      B                      A
 Frequencies --   1037.9092              1079.9267              1080.3552
 Red. masses --      1.9730                 2.8064                 2.3154
 Frc consts  --      1.2523                 1.9284                 1.5922
 IR Inten    --      2.1329                56.5287                 0.0110

                     88                     89                     90
                      A                      B                      A
 Frequencies --   1092.9762              1093.7505              1123.9688
 Red. masses --      6.1421                 5.5348                 4.2497
 Frc consts  --      4.3230                 3.9011                 3.1631
 IR Inten    --      0.5714                 4.9193                48.6711

                     91                     92                     93
                      B                      B                      A
 Frequencies --   1131.7512              1136.4188              1176.0274
 Red. masses --      3.4635                 3.2294                 5.2033
 Frc consts  --      2.6137                 2.4572                 4.2400
 IR Inten    --      0.9134                27.2719                 4.6173

                     94                     95                     96
                      A                      B                      A
 Frequencies --   1182.8299              1196.8155              1213.5307
 Red. masses --      4.5906                 6.4264                 8.1785
 Frc consts  --      3.7841                 5.4234                 7.0962
 IR Inten    --      3.9022                 1.5827                 6.6329

                     97                     98                     99
                      B                      A                      B
 Frequencies --   1214.5843              1305.7258              1373.6524
 Red. masses --      8.0088                 6.6242                 8.3851
 Frc consts  --      6.9610                 6.6541                 9.3221
 IR Inten    --      0.8544                 0.2882                 2.3918

                    100                    101                    102
                      A                      B                      A
 Frequencies --   1373.7080              1408.8703              1408.8802
 Red. masses --      8.3861                 8.4398                 8.4443
 Frc consts  --      9.3240                 9.8702                 9.8756
 IR Inten    --      0.5114                11.9178                 0.0309

                    103                    104                    105
                      A                      B                      B
 Frequencies --   1457.6319              1457.6648              1661.1990
 Red. masses --      9.2250                 9.2149                10.5525
 Frc consts  --     11.5481                11.5361                17.1573
 IR Inten    --      2.0611                 9.8469                 8.9611

                    106                    107                    108
                      A                      B                      A
 Frequencies --   1661.2080              1678.6861              1678.8209
 Red. masses --     10.5554                10.1866                10.1911
 Frc consts  --     17.1622                16.9129                16.9232
 IR Inten    --      9.3570                14.0782                14.5355

                    109                    110                    111
                      A                      B                      B
 Frequencies --   4362.0829              4369.6535              4418.5411
 Red. masses --      1.0875                 1.0870                 1.0598
 Frc consts  --     12.1912                12.2282                12.1912
 IR Inten    --      0.0098                14.9845                37.8136

                    112                    113                    114
                      A                      B                      A
 Frequencies --   4418.7272              4425.5479              4427.1256
 Red. masses --      1.0598                 1.0597                 1.0595
 Frc consts  --     12.1923                12.2281                12.2348
 IR Inten    --      0.8746                11.4441                10.1926

                    115                    116                    117
                      B                      A                      B
 Frequencies --   4429.1699              4431.7156              4541.4698
 Red. masses --      1.0603                 1.0612                 1.1091
 Frc consts  --     12.2555                12.2799                13.4780
 IR Inten    --     29.4401                12.1144                 3.6348

                    118                    119                    120
                      A                      A                      B
 Frequencies --   4541.4980              4545.8196              4548.7593
 Red. masses --      1.1092                 1.1094                 1.1089
 Frc consts  --     13.4790                13.5067                13.5186
 IR Inten    --      6.0445                 3.6870                12.7448

                    121                    122                    123
                      A                      B                      B
 Frequencies --   4552.0739              4555.4890              5009.4581
 Red. masses --      1.1087                 1.1081                 1.0890
 Frc consts  --     13.5354                13.5487                16.1014
 IR Inten    --      1.2503                20.4266                 2.7094

                    124                    125                    126
                      A                      B                      A
 Frequencies --   5009.4591              5026.0539              5026.0638
 Red. masses --      1.0890                 1.0894                 1.0894
 Frc consts  --     16.1013                16.2137                16.2138
 IR Inten    --      1.3894                 4.3117                 2.1204

                    127                    128                    129
                      B                      A                      B
 Frequencies --   5035.8730              5035.8814              5046.9000
 Red. masses --      1.0882                 1.0882                 1.0918
 Frc consts  --     16.2594                16.2593                16.3849
 IR Inten    --      0.1314                 0.0003                 0.2077

                    130                    131                    132
                      A                      B                      A
 Frequencies --   5046.9010              5373.5603              5373.6955
 Red. masses --      1.0918                 1.0763                 1.0762
 Frc consts  --     16.3849                18.3103                18.3096
 IR Inten    --      0.0001                26.1659                 1.6587

 - Thermochemistry -
 -------------------
 Temperature   298.150 Kelvin.  Pressure   1.00000 Atm.
 Atom     1 has atomic number  7 and mass  14.00307

 Molecular mass:   296.20010 amu.
 Principal axes and moments of inertia in atomic units:
                           1         2         3
     Eigenvalues --  4264.58896********************
           X           -0.10636   0.00000   0.99433
           Y            0.99433   0.00000   0.10636
           Z           -0.00000   1.00000  -0.00000
 This molecule is an asymmetric top.
 Rotational symmetry number  2.
 Warning -- assumption of classical behavior for rotation
           may cause significant error
 Rotational temperatures (Kelvin)      0.02031     0.00770     0.00644
 Rotational constants (GHZ):           0.42319     0.16046     0.13409
   41 imaginary frequencies ignored.
 Zero-point vibrational energy    1042760.9 (Joules/Mol)
                                  249.22585 (Kcal/Mol)
 Warning -- explicit consideration of  13 degrees of freedom as
           vibrations may cause significant error
 Vibrational temperatures:    243.11   263.58   358.26   431.01   489.40
          (Kelvin)            507.77   525.56   667.44   683.09   694.19
                              694.65   765.19   765.90   897.59   929.65
                              945.13   987.27   994.31   995.10  1005.00
                             1051.30  1051.35  1064.62  1075.33  1101.72
                             1105.35  1126.82  1160.41  1201.88  1205.53
                             1229.06  1252.50  1284.89  1296.76  1317.68
                             1341.32  1351.80  1373.95  1385.97  1403.27
                             1417.87  1419.04  1465.19  1493.32  1553.77
                             1554.39  1572.55  1573.66  1617.14  1628.34
                             1635.05  1692.04  1701.83  1721.95  1746.00
                             1747.52  1878.65  1976.38  1976.46  2027.05
                             2027.06  2097.21  2097.25  2390.09  2390.11
                             2415.25  2415.45  6276.06  6286.96  6357.30
                             6357.56  6367.38  6369.65  6372.59  6376.25
                             6534.16  6534.20  6540.42  6544.65  6549.42
                             6554.33  7207.49  7207.49  7231.37  7231.38
                             7245.50  7245.51  7261.36  7261.36  7731.35
                             7731.55

 Zero-point correction=                           0.397167 (Hartree/Particle)
 Thermal correction to Energy=                    0.407271
 Thermal correction to Enthalpy=                  0.408215
 Thermal correction to Gibbs Free Energy=         0.361177
 Sum of electronic and zero-point Energies=           -916.843283
 Sum of electronic and thermal Energies=              -916.833180
 Sum of electronic and thermal Enthalpies=            -916.832235
 Sum of electronic and thermal Free Energies=         -916.879273

                     E (Thermal)             CV                S
                      KCal/Mol        Cal/Mol-Kelvin    Cal/Mol-Kelvin
 Total                  255.566             48.710             99.000
 Electronic               0.000              0.000              0.000
 Translational            0.889              2.981             42.955
 Rotational               0.889              2.981             33.445
 Vibrational            253.789             42.748             22.600
 Vibration     1          0.625              1.881              2.447
 Vibration     2          0.631              1.863              2.296
 Vibration     3          0.662              1.764              1.738
 Vibration     4          0.692              1.675              1.419
 Vibration     5          0.720              1.595              1.211
 Vibration     6          0.729              1.569              1.153
 Vibration     7          0.739              1.544              1.100
 Vibration     8          0.821              1.330              0.755
 Vibration     9          0.831              1.306              0.724
 Vibration    10          0.839              1.289              0.703
 Vibration    11          0.839              1.288              0.703
 Vibration    12          0.887              1.180              0.583
 Vibration    13          0.887              1.178              0.582

 1\1\GINC-JST238\Freq\RPBE1PBE\def2SVP\C18H24N4\LAPLAZA\04-Mar-2023\0\\
 #p pop=(regular,nbo,savenbos) freq=noraman def2svp empiricaldispersion
 =gd3bj output=wfx pbe1pbe\\JILZOW_Complex_1_Ligand_0_NN_Cu_oriented\\0
 ,1\N,-1.92804763,0.61275009,0.\N,0.4339834984,1.9771579694,-0.00000019
 25\H,-1.96321869,0.50495666,-0.88128357\H,0.5453283879,1.9530810407,0.
 8812147499\N,1.12594432,2.36360841,-4.5695016\C,-1.9581891,2.05879479,
 0.35669918\C,-0.8037451714,2.7260205126,-0.3555571065\H,-1.80779664,2.
 14125781,1.3210558\H,-0.9507522798,2.6376968507,-1.3199167764\C,-3.282

 Normal termination of Gaussian 16 at Sat Mar  4 12:44:06 2023.
