 Gaussian 16, Revision C.01,
 Gaussian 16:  ES64L-G16RevC.01  3-Jul-2019

 ----------------------------------------------------------------------
 #p pop=(regular,nbo,savenbos) freq=noraman def2svp empiricaldispersion
 =gd3bj output=wfx pbe1pbe
 ----------------------------------------------------------------------

 -----------------------------------------
 JIMREF_Complex_28_Ligand_2_NN_Cu_oriented
 -----------------------------------------
 Symbolic Z-matrix:
 Charge = -1 Multiplicity = 1

                         Standard orientation:
 ---------------------------------------------------------------------
 Center     Atomic      Atomic             Coordinates (Angstroms)
 Number     Number       Type             X           Y           Z
 ---------------------------------------------------------------------
      1         16           0        1.119121   -1.933706    0.012014
      2          7           0       -2.273580   -0.870404   -1.169305
      3          8           0        1.010209   -2.393277    1.378770
      4          7           0       -1.214057   -0.414595    0.909833
      5          6           0        1.844990   -0.334531    0.025693
      6          8           0        1.958713   -2.794593   -0.807299
      7          6           0        1.698449    0.478928   -1.096880
      8          1           0        1.149733    0.191480   -1.818150
      9          7           0       -0.256026   -1.830690   -0.769352
     10          6           0       -3.303577   -0.097457   -0.858956
     11          6           0        3.153405    2.136445   -0.127423
     12          6           0       -1.240074   -1.019370   -0.291366
     13          6           0        2.604869    0.105071    1.086519
     14          1           0        2.685519   -0.429545    1.867240
     15          6           0        2.337031    1.695742   -1.169857
     16          1           0        2.221372    2.241120   -1.940362
     17          6           0        3.247914    1.326863    1.012160
     18          8           0       -4.257244    1.477636    0.744644
     19          6           0       -3.310047    0.604880    0.341107
     20          6           0       -2.240177    0.381079    1.190554
     21          1           0       -2.241365    0.825159    2.029455
     22          6           0       -5.302254    1.727408   -0.197285
     23          1           0       -4.915439    2.045439   -1.038955
     24          1           0       -5.908928    2.409404    0.161449
     25          1           0       -5.801040    0.899391   -0.358209
     26          7           0        3.828963    3.305515   -0.245311
     27          1           0        4.305993    3.639668    0.412613
     28          1           0        3.637650    3.837867   -0.897927
     29          1           0        3.766013    1.624059    1.750987
     30          1           0       -4.039145   -0.021983   -1.455941
 ---------------------------------------------------------------------

 SCF Done:  E(RPBE1PBE) =  -1266.59141949     A.U. after   15 cycles

 The electronic state is 1-A.
 Alpha  occ. eigenvalues --  -89.03123 -19.13129 -18.99428 -18.98677 -14.28621
 Alpha  occ. eigenvalues --  -14.23746 -14.23315 -14.18160 -10.16918 -10.16857
 Alpha  occ. eigenvalues --  -10.16653 -10.15453 -10.13023 -10.12427 -10.10591
 Alpha  occ. eigenvalues --  -10.10562 -10.10529 -10.10508 -10.10469  -7.99955
 Alpha  occ. eigenvalues --   -5.94127  -5.94073  -5.94039  -0.98023  -0.94728
 Alpha  occ. eigenvalues --   -0.88043  -0.86034  -0.81305  -0.76009  -0.75581
 Alpha  occ. eigenvalues --   -0.74184  -0.68510  -0.66630  -0.65531  -0.62455
 Alpha  occ. eigenvalues --   -0.55835  -0.54919  -0.54618  -0.51673  -0.48026
 Alpha  occ. eigenvalues --   -0.47414  -0.46131  -0.44540  -0.42836  -0.41549
 Alpha  occ. eigenvalues --   -0.41139  -0.36698  -0.36555  -0.35104  -0.34454
 Alpha  occ. eigenvalues --   -0.34021  -0.32377  -0.31520  -0.31155  -0.30439
 Alpha  occ. eigenvalues --   -0.28720  -0.27342  -0.26276  -0.25563  -0.25372
 Alpha  occ. eigenvalues --   -0.22757  -0.19215  -0.18614  -0.16428  -0.15860
 Alpha  occ. eigenvalues --   -0.15405  -0.15158  -0.13603  -0.12331  -0.10187
 Alpha  occ. eigenvalues --   -0.09835  -0.09088  -0.05831
 Alpha virt. eigenvalues --    0.10371   0.11190   0.12481   0.15654   0.16690
 Alpha virt. eigenvalues --    0.17445   0.20399   0.21655   0.22181   0.22684
 Alpha virt. eigenvalues --    0.24828   0.25363   0.26435   0.26791   0.27760

 Mulliken charges:
               1
     1  S    0.892575
     2  N   -0.183065
     3  O   -0.527187
     4  N   -0.181091
     5  C   -0.091573
     6  O   -0.543549
     7  C    0.133144
     8  H   -0.081120
     9  N   -0.425070
    10  C    0.105740
    11  C    0.028294
    12  C    0.087324
    13  C    0.114505
    14  H   -0.100767
    15  C    0.022707
    16  H   -0.127208
    17  C    0.019860
    18  O   -0.390170
    19  C    0.037153
    20  C    0.161354
    21  H   -0.100029
    22  C    0.318232
    23  H   -0.015909
    24  H   -0.015864
    25  H   -0.014815
    26  N    0.064295
    27  H    0.029886
    28  H    0.022797
    29  H   -0.129319
    30  H   -0.111131
 Sum of Mulliken charges =  -1.00000

 Dipole moment (field-independent basis, Debye):
    X=             -1.8305    Y=             12.3591    Z=              0.0359  Tot=             12.4940
 Quadrupole moment (field-independent basis, Debye-Ang):
   XX=           -118.3420   YY=           -136.3128   ZZ=           -125.6426
   XY=             15.3612   XZ=              5.9749   YZ=             -6.2752

  Exact polarizability:     201.584      -2.756     160.208      12.858       1.665     129.923
 Approx polarizability:     256.428     -11.653     254.884      25.759      12.036     241.711

 Summary of Natural Population Analysis:

                                       Natural Population
                Natural  -----------------------------------------------
    Atom  No    Charge         Core      Valence    Rydberg      Total
 -----------------------------------------------------------------------
      S    1    2.30386      9.99796     3.46267    0.23551    13.69614
      N    2   -0.52726      1.99929     5.51033    0.01764     7.52726
      O    3   -0.99449      1.99977     6.98656    0.00815     8.99449
      N    4   -0.54749      1.99928     5.53172    0.01648     7.54749
      C    5   -0.31286      1.99884     4.28554    0.02848     6.31286
      O    6   -0.98671      1.99977     6.97851    0.00842     8.98671
      C    7   -0.13235      1.99901     4.11609    0.01725     6.13235
      H    8    0.19804      0.00000     0.79746    0.00450     0.80196
      N    9   -0.94572      1.99926     5.92938    0.01708     7.94572
      C   10    0.01800      1.99904     3.96117    0.02179     5.98200
      C   11    0.18813      1.99900     3.79513    0.01774     5.81187
      C   12    0.60374      1.99917     3.35354    0.04354     5.39626
      C   13   -0.13614      1.99899     4.11899    0.01816     6.13614
      H   14    0.19623      0.00000     0.79914    0.00463     0.80377
      C   15   -0.25860      1.99901     4.24425    0.01534     6.25860
      H   16    0.17200      0.00000     0.82472    0.00328     0.82800
      C   17   -0.26297      1.99902     4.24861    0.01534     6.26297
      O   18   -0.56425      1.99965     6.55397    0.01063     8.56425
      C   19    0.18375      1.99880     3.79496    0.02249     5.81625
      C   20    0.07670      1.99904     3.90088    0.02338     5.92330
      H   21    0.15506      0.00000     0.84098    0.00396     0.84494
      C   22   -0.16419      1.99899     4.15355    0.01164     6.16419
      H   23    0.15452      0.00000     0.84114    0.00434     0.84548
      H   24    0.16751      0.00000     0.83056    0.00193     0.83249
      H   25    0.15312      0.00000     0.84264    0.00424     0.84688
      N   26   -0.72254      1.99927     5.70520    0.01807     7.72254
      H   27    0.33668      0.00000     0.65898    0.00435     0.66332
      H   28    0.32942      0.00000     0.66612    0.00446     0.67058
      H   29    0.17063      0.00000     0.82610    0.00327     0.82937
      H   30    0.14818      0.00000     0.84911    0.00271     0.85182
 =======================================================================
   * Total *   -1.00000     45.98318    99.40800    0.60882   146.00000

 ******   19 imaginary frequencies (negative Signs) ******

                      1                      2                      3
                      A                      A                      A
 Frequencies --  -1900.9250             -1698.5526             -1400.3999
 Red. masses --      1.1154                 1.0345                 1.0351
 Frc consts  --      2.3747                 1.7585                 1.1960
 IR Inten    --    209.5985                51.0860                 3.0920

                      4                      5                      6
                      A                      A                      A
 Frequencies --  -1249.8319             -1236.8078             -1204.7713
 Red. masses --      1.0689                 1.0104                 1.0578
 Frc consts  --      0.9837                 0.9107                 0.9046
 IR Inten    --     55.4556                 0.1587                 6.9916

                      7                      8                      9
                      A                      A                      A
 Frequencies --  -1202.5799             -1133.4477             -1045.0217
 Red. masses --      1.0452                 1.0256                 1.0206
 Frc consts  --      0.8906                 0.7763                 0.6567
 IR Inten    --      2.0976                 0.0655                 0.2690

                     10                     11                     12
                      A                      A                      A
 Frequencies --  -1023.4650              -687.6495              -662.3099
 Red. masses --      1.0308                 1.2464                 1.1629
 Frc consts  --      0.6362                 0.3473                 0.3006
 IR Inten    --      0.4528                 3.8597                 9.6435

                     13                     14                     15
                      A                      A                      A
 Frequencies --   -645.5634              -589.7138              -576.6641
 Red. masses --      1.1779                 1.0799                 1.2616
 Frc consts  --      0.2892                 0.2213                 0.2472
 IR Inten    --     13.4449                10.4316                 2.8466

                     16                     17                     18
                      A                      A                      A
 Frequencies --   -538.8728              -355.3866              -347.6699
 Red. masses --      1.2720                 1.2172                 1.0484
 Frc consts  --      0.2176                 0.0906                 0.0747
 IR Inten    --      5.1399                 4.8098                12.7615

                     19                     20                     21
                      A                      A                      A
 Frequencies --    -43.7753                41.4997               103.2168
 Red. masses --      9.2409                 6.6469                 8.4183
 Frc consts  --      0.0104                 0.0067                 0.0528
 IR Inten    --      1.6172                 0.2657                 0.2299

                     22                     23                     24
                      A                      A                      A
 Frequencies --    123.7850               153.6771               198.4583
 Red. masses --      9.6409                12.0174                 9.6316
 Frc consts  --      0.0870                 0.1672                 0.2235
 IR Inten    --      1.1155                 0.5392                 2.6934

                     25                     26                     27
                      A                      A                      A
 Frequencies --    207.5724               241.9637               312.7808
 Red. masses --      9.3597                 9.2739                 8.1420
 Frc consts  --      0.2376                 0.3199                 0.4693
 IR Inten    --      0.3118                 0.8140                 2.8857

                     28                     29                     30
                      A                      A                      A
 Frequencies --    316.3258               338.3693               377.8659
 Red. masses --      8.4655                 9.4949                 7.9792
 Frc consts  --      0.4991                 0.6405                 0.6713
 IR Inten    --      3.1198                 2.0346                 3.9399

                     31                     32                     33
                      A                      A                      A
 Frequencies --    393.2318               442.1706               511.4711
 Red. masses --      9.6592                 8.0863                 7.6863
 Frc consts  --      0.8800                 0.9315                 1.1847
 IR Inten    --      2.3561                 0.9895                40.4225

                     34                     35                     36
                      A                      A                      A
 Frequencies --    520.0011               533.2364               548.9957
 Red. masses --      6.5235                11.0095                 1.3749
 Frc consts  --      1.0393                 1.8444                 0.2442
 IR Inten    --     34.8090                 1.1732                37.8706

                     37                     38                     39
                      A                      A                      A
 Frequencies --    561.5076               602.8269               631.5389
 Red. masses --      5.8131                 9.1871                 8.1089
 Frc consts  --      1.0799                 1.9670                 1.9055
 IR Inten    --     11.3128                85.4571               161.2548

                     40                     41                     42
                      A                      A                      A
 Frequencies --    666.5417               671.7745               683.2947
 Red. masses --      6.9856                 4.4007                 7.3744
 Frc consts  --      1.8286                 1.1701                 2.0286
 IR Inten    --      0.7194                 2.8748                26.4057

                     43                     44                     45
                      A                      A                      A
 Frequencies --    705.8612               717.5149               747.1573
 Red. masses --      7.3913                 4.7046                 6.2555
 Frc consts  --      2.1697                 1.4270                 2.0575
 IR Inten    --      9.8376                10.4758                 8.8269

                     46                     47                     48
                      A                      A                      A
 Frequencies --    776.1381               802.4404               813.5004
 Red. masses --      6.5287                 3.9865                 9.4218
 Frc consts  --      2.3172                 1.5124                 3.6737
 IR Inten    --     14.4624                 1.3804                14.1559

                     49                     50                     51
                      A                      A                      A
 Frequencies --    837.9665               845.5348               873.4175
 Red. masses --     10.3553                 2.3880                 3.1104
 Frc consts  --      4.2841                 1.0059                 1.3980
 IR Inten    --     17.1962                99.9345                31.0138

                     52                     53                     54
                      A                      A                      A
 Frequencies --    905.5325               926.3155              1057.2766
 Red. masses --      6.1435                 5.1099                 9.1923
 Frc consts  --      2.9681                 2.5834                 6.0541
 IR Inten    --    109.4140                12.2816               121.0317

                     55                     56                     57
                      A                      A                      A
 Frequencies --   1083.7388              1117.7850              1145.7450
 Red. masses --      3.0250                 7.8112                 1.0324
 Frc consts  --      2.0933                 5.7502                 0.7985
 IR Inten    --     15.0973                46.4428                13.4738

                     58                     59                     60
                      A                      A                      A
 Frequencies --   1166.6674              1191.6439              1239.5690
 Red. masses --      1.3361                 2.9853                16.7645
 Frc consts  --      1.0715                 2.4977                15.1769
 IR Inten    --      8.5342                49.5007               581.5882

                     61                     62                     63
                      A                      A                      A
 Frequencies --   1294.2818              1315.9532              1379.4645
 Red. masses --      9.7684                 8.8425                19.2633
 Frc consts  --      9.6412                 9.0220                21.5974
 IR Inten    --     12.5226                63.7712               154.9975

                     64                     65                     66
                      A                      A                      A
 Frequencies --   1417.8982              1428.8458              1435.2206
 Red. masses --     10.8974                 9.6387                 8.2039
 Frc consts  --     12.9082                11.5942                 9.9565
 IR Inten    --     92.6017                 6.2594                77.3499

                     67                     68                     69
                      A                      A                      A
 Frequencies --   1457.1629              1513.3280              1556.4641
 Red. masses --      9.8493                11.2612                 9.8997
 Frc consts  --     12.3217                15.1950                14.1302
 IR Inten    --     33.9519              1491.9674               102.8183

                     70                     71                     72
                      A                      A                      A
 Frequencies --   1635.0485              1673.5348              1675.8391
 Red. masses --     10.5192                10.5881                11.5459
 Frc consts  --     16.5690                17.4718                19.1048
 IR Inten    --     54.9207                50.1371                88.0420

                     73                     74                     75
                      A                      A                      A
 Frequencies --   1703.3338              4233.9181              4421.1694
 Red. masses --     11.1807                 1.0302                 1.1080
 Frc consts  --     19.1126                10.8806                12.7602
 IR Inten    --    230.5150                61.2001                12.8866

                     76                     77                     78
                      A                      A                      A
 Frequencies --   4426.8297              4744.7091              4756.7751
 Red. masses --      1.1082                 1.0882                 1.0890
 Frc consts  --     12.7953                14.4343                14.5174
 IR Inten    --      8.0112                 7.7133                20.9469

                     79                     80                     81
                      A                      A                      A
 Frequencies --   4757.4647              4766.5031              4774.5041
 Red. masses --      1.0882                 1.0907                 1.0892
 Frc consts  --     14.5112                14.5999                14.6288
 IR Inten    --      8.8687                 4.0165                11.4123

                     82                     83                     84
                      A                      A                      A
 Frequencies --   4782.3451              5508.6875              5828.7789
 Red. masses --      1.0905                 1.0559                 1.0915
 Frc consts  --     14.6945                18.8786                21.8488
 IR Inten    --      3.2452                77.2950                39.6714

 - Thermochemistry -
 -------------------
 Temperature   298.150 Kelvin.  Pressure   1.00000 Atm.
 Atom     1 has atomic number 16 and mass  31.97207

 Molecular mass:   279.05519 amu.
 Principal axes and moments of inertia in atomic units:
                           1         2         3
     Eigenvalues --  3562.986987951.12075**********
           X            0.99996   0.00656   0.00608
           Y           -0.00651   0.99995  -0.00822
           Z           -0.00613   0.00818   0.99995
 This molecule is an asymmetric top.
 Rotational symmetry number  1.
 Warning -- assumption of classical behavior for rotation
           may cause significant error
 Rotational temperatures (Kelvin)      0.02431     0.01089     0.00858
 Rotational constants (GHZ):           0.50652     0.22698     0.17868
   19 imaginary frequencies ignored.
 Zero-point vibrational energy     589902.3 (Joules/Mol)
                                  140.99004 (Kcal/Mol)
 Warning -- explicit consideration of  19 degrees of freedom as
           vibrations may cause significant error
 Vibrational temperatures:     59.71   148.51   178.10   221.11   285.54
          (Kelvin)            298.65   348.13   450.02   455.12   486.84
                              543.66   565.77   636.18   735.89   748.17
                              767.21   789.88   807.88   867.33   908.64
                              959.00   966.53   983.11  1015.58  1032.34
                             1074.99  1116.69  1154.53  1170.45  1205.65
                             1216.54  1256.65  1302.86  1332.76  1521.19
                             1559.26  1608.24  1648.47  1678.57  1714.51
                             1783.46  1862.18  1893.36  1984.74  2040.04
                             2055.79  2064.96  2096.53  2177.34  2239.40
                             2352.47  2407.84  2411.16  2450.72  6091.66
                             6361.08  6369.22  6826.58  6843.94  6844.93
                             6857.93  6869.45  6880.73  7925.77  8386.31

 Zero-point correction=                           0.224682 (Hartree/Particle)
 Thermal correction to Energy=                    0.236871
 Thermal correction to Enthalpy=                  0.237815
 Thermal correction to Gibbs Free Energy=         0.184920
 Sum of electronic and zero-point Energies=          -1266.366738
 Sum of electronic and thermal Energies=             -1266.354548
 Sum of electronic and thermal Enthalpies=           -1266.353604
 Sum of electronic and thermal Free Energies=        -1266.406500

                     E (Thermal)             CV                S
                      KCal/Mol        Cal/Mol-Kelvin    Cal/Mol-Kelvin
 Total                  148.639             48.732            111.328
 Electronic               0.000              0.000              0.000
 Translational            0.889              2.981             42.777
 Rotational               0.889              2.981             34.014
 Vibrational            146.861             42.770             34.538
 Vibration     1          0.594              1.981              5.186
 Vibration     2          0.605              1.947              3.393
 Vibration     3          0.610              1.929              3.040
 Vibration     4          0.619              1.899              2.626
 Vibration     5          0.637              1.842              2.147
 Vibration     6          0.641              1.829              2.065
 Vibration     7          0.658              1.776              1.788
 Vibration     8          0.701              1.649              1.348
 Vibration     9          0.703              1.642              1.329
 Vibration    10          0.719              1.599              1.220
 Vibration    11          0.748              1.517              1.048
 Vibration    12          0.760              1.485              0.988
 Vibration    13          0.802              1.378              0.820
 Vibration    14          0.867              1.225              0.630
 Vibration    15          0.875              1.206              0.610
 Vibration    16          0.888              1.176              0.580
 Vibration    17          0.904              1.142              0.546
 Vibration    18          0.917              1.115              0.521
 Vibration    19          0.961              1.026              0.445

 Normal termination of Gaussian 16 at Mon Mar  6 10:57:41 2023.
