 Gaussian 16, Revision C.01,
 Gaussian 16:  ES64L-G16RevC.01  3-Jul-2019

 ----------------------------------------------------------------------
 #p pop=(regular,nbo,savenbos) freq=noraman def2svp empiricaldispersion
 =gd3bj output=wfx pbe1pbe
 ----------------------------------------------------------------------

 ----------------------------------------
 JUBWOS_Complex_2_Ligand_0_NN_Cu_oriented
 ----------------------------------------
 Symbolic Z-matrix:
 Charge = -1 Multiplicity = 1

                         Standard orientation:
 ---------------------------------------------------------------------
 Center     Atomic      Atomic             Coordinates (Angstroms)
 Number     Number       Type             X           Y           Z
 ---------------------------------------------------------------------
      1          7           0        3.452570   -0.658489   -0.719806
      2          1           0        4.387801   -1.048887   -0.286163
      3          7           0        1.510762    1.136194   -0.824160
      4          8           0        2.810879   -1.399303    1.341647
      5          6           0        2.630368   -0.732191    0.297804
      6          6           0        1.318681    0.046253    0.127335
      7          6           0        0.226204   -0.911559   -0.283016
      8          6           0       -1.202195   -0.420167   -0.133912
      9          6           0       -2.215991   -1.219665   -0.620515
     10          6           0       -3.562721   -0.891754   -0.425972
     11          6           0       -3.875847    0.254520    0.227273
     12          6           0       -2.885645    1.079453    0.713792
     13          6           0       -1.545655    0.710679    0.543394
     14          6           0        1.943888    2.371456   -0.205173
     15          1           0        0.681853    1.500732   -1.334490
     16          1           0        1.101665    0.446452    0.920205
     17          1           0        0.321517   -1.830755    0.282309
     18          1           0        0.362936   -1.163196   -1.350364
     19          1           0       -1.962610   -2.135095   -1.193859
     20          1           0       -4.342732   -1.559740   -0.796577
     21          1           0       -4.941300    0.501542    0.351760
     22          1           0       -3.172160    2.009093    1.206044
     23          1           0       -0.747952    1.337450    1.011206
     24          1           0        2.808237    2.209834    0.389889
     25          1           0        1.132499    2.760897    0.413638
     26          1           0        2.153364    3.100023   -0.985060
 ---------------------------------------------------------------------

 SCF Done:  E(RPBE1PBE) =  -572.512368155     A.U. after   16 cycles

 The electronic state is 1-A.
 Alpha  occ. eigenvalues --  -18.92334 -14.21634 -14.11015 -10.14080 -10.13894
 Alpha  occ. eigenvalues --  -10.13685 -10.13316 -10.13168 -10.12981 -10.10816
 Alpha  occ. eigenvalues --  -10.09612 -10.07178 -10.07111  -0.79897  -0.78486
 Alpha  occ. eigenvalues --   -0.76797  -0.69017  -0.66088  -0.62745  -0.60943
 Alpha  occ. eigenvalues --   -0.54538  -0.52370  -0.50613  -0.47828  -0.42929
 Alpha  occ. eigenvalues --   -0.38156  -0.36323  -0.36083  -0.34801  -0.33708
 Alpha  occ. eigenvalues --   -0.32785  -0.30592  -0.29677  -0.29209  -0.26418
 Alpha  occ. eigenvalues --   -0.25206  -0.24415  -0.24323  -0.22470  -0.20336
 Alpha  occ. eigenvalues --   -0.19867  -0.16835  -0.15816  -0.15315  -0.07639
 Alpha  occ. eigenvalues --   -0.06949  -0.01310   0.00149
 Alpha virt. eigenvalues --    0.09113   0.10859   0.15764   0.18928   0.20173
 Alpha virt. eigenvalues --    0.22029   0.22908   0.24272   0.25007   0.25486
 Alpha virt. eigenvalues --    0.26970   0.27297   0.28929   0.29330   0.30687

 Mulliken charges:
               1
     1  N   -0.356238
     2  H    0.025204
     3  N   -0.272726
     4  O   -0.455760
     5  C   -0.050796
     6  C    0.180098
     7  C    0.075373
     8  C   -0.053613
     9  C   -0.054841
    10  C   -0.018932
    11  C   -0.029212
    12  C   -0.013725
    13  C   -0.053934
    14  C    0.072271
    15  H    0.073327
    16  H   -0.129585
    17  H    0.039714
    18  H    0.032496
    19  H    0.000431
    20  H   -0.010352
    21  H   -0.010548
    22  H   -0.007544
    23  H    0.028153
    24  H    0.027957
    25  H   -0.039748
    26  H    0.002529
 Sum of Mulliken charges =  -1.00000

 Dipole moment (field-independent basis, Debye):
    X=            -11.9486    Y=              3.8013    Z=             -0.5764  Tot=             12.5520
 Quadrupole moment (field-independent basis, Debye-Ang):
   XX=           -125.7322   YY=            -84.6659   ZZ=            -90.9342
   XY=             11.9954   XZ=              0.8226   YZ=              6.5616

  Exact polarizability:     171.629      -3.983     116.885      -3.268      12.352      88.776
 Approx polarizability:     218.289      -6.639     174.033      -6.045      21.699     148.697

 Summary of Natural Population Analysis:

                                       Natural Population
                Natural  -----------------------------------------------
    Atom  No    Charge         Core      Valence    Rydberg      Total
 -----------------------------------------------------------------------
      N    1   -0.90251      1.99941     5.88974    0.01337     7.90251
      H    2    0.28821      0.00000     0.70371    0.00808     0.71179
      N    3   -0.68957      1.99940     5.67480    0.01537     7.68957
      O    4   -0.81183      1.99974     6.80209    0.01000     8.81183
      C    5    0.60092      1.99930     3.33472    0.06506     5.39908
      C    6   -0.05441      1.99868     4.02742    0.02831     6.05441
      C    7   -0.44582      1.99912     4.43128    0.01542     6.44582
      C    8   -0.02442      1.99881     4.00786    0.01775     6.02442
      C    9   -0.21804      1.99886     4.20344    0.01574     6.21804
      C   10   -0.23593      1.99889     4.22122    0.01582     6.23593
      C   11   -0.25997      1.99887     4.24512    0.01598     6.25997
      C   12   -0.22692      1.99892     4.21220    0.01580     6.22692
      C   13   -0.23878      1.99882     4.22383    0.01613     6.23878
      C   14   -0.38875      1.99933     4.37845    0.01097     6.38875
      H   15    0.33741      0.00000     0.65491    0.00768     0.66259
      H   16    0.13300      0.00000     0.85554    0.01147     0.86700
      H   17    0.25231      0.00000     0.74012    0.00757     0.74769
      H   18    0.23800      0.00000     0.75628    0.00571     0.76200
      H   19    0.22379      0.00000     0.77325    0.00296     0.77621
      H   20    0.21592      0.00000     0.78113    0.00295     0.78408
      H   21    0.21342      0.00000     0.78351    0.00307     0.78658
      H   22    0.21817      0.00000     0.77898    0.00286     0.78183
      H   23    0.23707      0.00000     0.75975    0.00318     0.76293
      H   24    0.20450      0.00000     0.79144    0.00406     0.79550
      H   25    0.14396      0.00000     0.85061    0.00543     0.85604
      H   26    0.19027      0.00000     0.80721    0.00251     0.80973
 =======================================================================
   * Total *   -1.00000     25.98815    69.68861    0.32324    96.00000

 ******    6 imaginary frequencies (negative Signs) ******

                      1                      2                      3
                      A                      A                      A
 Frequencies --  -1190.1398             -1032.6820              -415.0385
 Red. masses --      1.0776                 1.1147                 1.0244
 Frc consts  --      0.8993                 0.7004                 0.1040
 IR Inten    --      7.6378                 7.0510                 0.7945

                      4                      5                      6
                      A                      A                      A
 Frequencies --   -165.3410              -131.6762               -95.1184
 Red. masses --      2.6843                 5.8335                 3.3290
 Frc consts  --      0.0432                 0.0596                 0.0177
 IR Inten    --      4.7653                 0.1176                 0.6596

                      7                      8                      9
                      A                      A                      A
 Frequencies --     59.7199               123.9506               169.9178
 Red. masses --      5.2680                 4.1201                 4.4016
 Frc consts  --      0.0111                 0.0373                 0.0749
 IR Inten    --      2.6417                 4.2244                 0.8192

                     10                     11                     12
                      A                      A                      A
 Frequencies --    197.8002               217.6408               291.7123
 Red. masses --      4.4671                 2.0500                 3.5897
 Frc consts  --      0.1030                 0.0572                 0.1800
 IR Inten    --     15.1166                 2.4884                 0.3843

                     13                     14                     15
                      A                      A                      A
 Frequencies --    400.5922               410.2019               444.6773
 Red. masses --      4.7529                 3.0462                 2.9982
 Frc consts  --      0.4494                 0.3020                 0.3493
 IR Inten    --      4.4316                 0.4979                 2.7548

                     16                     17                     18
                      A                      A                      A
 Frequencies --    520.3469               523.7671               595.9735
 Red. masses --      3.6098                 6.3036                 5.6463
 Frc consts  --      0.5759                 1.0189                 1.1816
 IR Inten    --      6.4404                 5.1592                 7.0711

                     19                     20                     21
                      A                      A                      A
 Frequencies --    641.8903               710.5507               722.7418
 Red. masses --      6.3592                 3.4915                 3.6684
 Frc consts  --      1.5437                 1.0386                 1.1290
 IR Inten    --      0.9302                 0.9598                26.0340

                     22                     23                     24
                      A                      A                      A
 Frequencies --    749.0209               772.6351               780.6000
 Red. masses --      1.2196                 1.4123                 4.3649
 Frc consts  --      0.4031                 0.4967                 1.5671
 IR Inten    --     68.2992                74.5891                 2.4343

                     25                     26                     27
                      A                      A                      A
 Frequencies --    847.7056               870.0109               883.6593
 Red. masses --      3.8354                 1.8886                 1.2738
 Frc consts  --      1.6239                 0.8423                 0.5861
 IR Inten    --      2.5636                 3.0267                 0.8156

                     28                     29                     30
                      A                      A                      A
 Frequencies --    961.6495               973.2119              1011.1758
 Red. masses --      2.4432                 1.6960                 1.6273
 Frc consts  --      1.3312                 0.9465                 0.9804
 IR Inten    --      3.1302                 5.9964                11.6211

                     31                     32                     33
                      A                      A                      A
 Frequencies --   1028.6936              1033.4671              1042.7541
 Red. masses --      1.3898                 3.0150                 1.5235
 Frc consts  --      0.8665                 1.8973                 0.9760
 IR Inten    --      0.7552                 1.2157                 5.9733

                     34                     35                     36
                      A                      A                      A
 Frequencies --   1090.3823              1100.1158              1107.9608
 Red. masses --      1.2716                 1.6130                 1.8825
 Frc consts  --      0.8908                 1.1502                 1.3616
 IR Inten    --     39.0942                12.0965                 9.7742

                     37                     38                     39
                      A                      A                      A
 Frequencies --   1110.1916              1133.6010              1143.7405
 Red. masses --      1.5971                 2.1334                 1.5885
 Frc consts  --      1.1598                 1.6153                 1.2243
 IR Inten    --      2.2640                 2.1453                 2.6709

                     40                     41                     42
                      A                      A                      A
 Frequencies --   1190.2650              1199.7282              1221.6279
 Red. masses --      1.2086                 1.2617                 2.6188
 Frc consts  --      1.0088                 1.0700                 2.3027
 IR Inten    --      0.5382                 0.7865                35.1273

                     43                     44                     45
                      A                      A                      A
 Frequencies --   1227.8464              1252.7768              1320.3537
 Red. masses --      1.6979                 1.6935                 2.3252
 Frc consts  --      1.5082                 1.5660                 2.3883
 IR Inten    --      7.9167                 6.4907                 5.5650

                     46                     47                     48
                      A                      A                      A
 Frequencies --   1350.4068              1361.5572              1365.7912
 Red. masses --      1.1736                 1.8654                 1.3582
 Frc consts  --      1.2610                 2.0375                 1.4927
 IR Inten    --      2.0391               107.6688                 8.9370

                     49                     50                     51
                      A                      A                      A
 Frequencies --   1405.4999              1418.3889              1431.9994
 Red. masses --      1.0903                 1.0372                 1.0714
 Frc consts  --      1.2689                 1.2294                 1.2945
 IR Inten    --     12.3337                 2.3378                 7.7862

                     52                     53                     54
                      A                      A                      A
 Frequencies --   1466.5798              1483.2673              1531.7280
 Red. masses --      3.3371                 2.4134                 2.3607
 Frc consts  --      4.2289                 3.1283                 3.2632
 IR Inten    --      1.0932                62.2719                 3.4516

                     55                     56                     57
                      A                      A                      A
 Frequencies --   1534.8905              1605.3588              1710.5320
 Red. masses --      1.5799                 3.5135                 6.2110
 Frc consts  --      2.1930                 5.3350                10.7071
 IR Inten    --     16.5671                14.6915                16.3529

                     58                     59                     60
                      A                      A                      A
 Frequencies --   1748.4502              1794.8665              2658.8330
 Red. masses --     10.0655                 7.3899                 1.0695
 Frc consts  --     18.1297                14.0267                 4.4546
 IR Inten    --    416.0841                 4.1943               114.2048

                     61                     62                     63
                      A                      A                      A
 Frequencies --   2986.1475              3051.2546              3058.8271
 Red. masses --      1.0928                 1.0911                 1.0757
 Frc consts  --      5.7411                 5.9851                 5.9300
 IR Inten    --      6.0817                 7.4019                18.9779

                     64                     65                     66
                      A                      A                      A
 Frequencies --   3099.5341              3121.6581              3214.3531
 Red. masses --      1.0553                 1.0905                 1.0958
 Frc consts  --      5.9736                 6.2608                 6.6708
 IR Inten    --    131.0430                24.6801                29.9398

                     67                     68                     69
                      A                      A                      A
 Frequencies --   3222.7714              3231.7421              3277.2239
 Red. masses --      1.0895                 1.0945                 1.0895
 Frc consts  --      6.6671                 6.7348                 6.8944
 IR Inten    --     67.7793                19.6142                 9.4468

                     70                     71                     72
                      A                      A                      A
 Frequencies --   3280.5730              3501.4388              5206.9781
 Red. masses --      1.0738                 1.0944                 1.0863
 Frc consts  --      6.8087                 7.9054                17.3536
 IR Inten    --     32.1990                14.8533                19.9868

 - Thermochemistry -
 -------------------
 Temperature   298.150 Kelvin.  Pressure   1.00000 Atm.
 Atom     1 has atomic number  7 and mass  14.00307

 Molecular mass:   177.10279 amu.
 Principal axes and moments of inertia in atomic units:
                           1         2         3
     Eigenvalues --  1104.551974221.429984783.52249
           X            0.99989   0.01480  -0.00198
           Y           -0.01471   0.99908   0.04017
           Z            0.00257  -0.04013   0.99919
 This molecule is an asymmetric top.
 Rotational symmetry number  1.
 Warning -- assumption of classical behavior for rotation
           may cause significant error
 Rotational temperatures (Kelvin)      0.07842     0.02052     0.01811
 Rotational constants (GHZ):           1.63391     0.42752     0.37728
    6 imaginary frequencies ignored.
 Zero-point vibrational energy     569454.2 (Joules/Mol)
                                  136.10282 (Kcal/Mol)
 Warning -- explicit consideration of  12 degrees of freedom as
           vibrations may cause significant error
 Vibrational temperatures:     85.92   178.34   244.47   284.59   313.14
          (Kelvin)            419.71   576.36   590.19   639.79   748.66
                              753.58   857.47   923.54  1022.32  1039.86
                             1077.67  1111.65  1123.11  1219.66  1251.75
                             1271.39  1383.60  1400.23  1454.86  1480.06
                             1486.93  1500.29  1568.82  1582.82  1594.11
                             1597.32  1631.00  1645.59  1712.53  1726.14
                             1757.65  1766.60  1802.47  1899.69  1942.93
                             1958.98  1965.07  2022.20  2040.75  2060.33
                             2110.08  2134.09  2203.82  2208.37  2309.75
                             2461.07  2515.63  2582.41  3825.47  4296.40
                             4390.07  4400.97  4459.54  4491.37  4624.74
                             4636.85  4649.76  4715.19  4720.01  5037.79
                             7491.68

 Zero-point correction=                           0.216894 (Hartree/Particle)
 Thermal correction to Energy=                    0.226144
 Thermal correction to Enthalpy=                  0.227088
 Thermal correction to Gibbs Free Energy=         0.181360
 Sum of electronic and zero-point Energies=           -572.295475
 Sum of electronic and thermal Energies=              -572.286224
 Sum of electronic and thermal Enthalpies=            -572.285280
 Sum of electronic and thermal Free Energies=         -572.331008

                     E (Thermal)             CV                S
                      KCal/Mol        Cal/Mol-Kelvin    Cal/Mol-Kelvin
 Total                  141.907             37.157             96.243
 Electronic               0.000              0.000              0.000
 Translational            0.889              2.981             41.422
 Rotational               0.889              2.981             31.479
 Vibrational            140.130             31.195             23.343
 Vibration     1          0.597              1.974              4.466
 Vibration     2          0.610              1.929              3.038
 Vibration     3          0.625              1.880              2.436
 Vibration     4          0.637              1.843              2.153
 Vibration     5          0.646              1.814              1.979
 Vibration     6          0.687              1.689              1.464
 Vibration     7          0.766              1.469              0.960
 Vibration     8          0.774              1.448              0.926
 Vibration     9          0.804              1.373              0.812
 Vibration    10          0.875              1.205              0.609
 Vibration    11          0.879              1.197              0.601
 Vibration    12          0.954              1.040              0.457

 Normal termination of Gaussian 16 at Mon Mar  6 10:40:05 2023.
