 Gaussian 16, Revision C.01,
 Gaussian 16:  ES64L-G16RevC.01  3-Jul-2019

 ----------------------------------------------------------------------
 #p pop=(regular,nbo,savenbos) freq=noraman def2svp empiricaldispersion
 =gd3bj output=wfx pbe1pbe
 ----------------------------------------------------------------------

 -----------------------------------------
 KAKWOL_Complex_11_Ligand_1_NN_Cu_oriented
 -----------------------------------------
 Symbolic Z-matrix:
 Charge =  0 Multiplicity = 1

                         Standard orientation:
 ---------------------------------------------------------------------
 Center     Atomic      Atomic             Coordinates (Angstroms)
 Number     Number       Type             X           Y           Z
 ---------------------------------------------------------------------
      1          6           0       -0.821481   -0.529130   -0.480384
      2          6           0       -0.422014    0.933486   -0.419626
      3          1           0       -0.894954    1.398968   -1.140691
      4          6           0        1.073988    1.124107   -0.652378
      5          1           0        1.308424    2.045932   -0.459732
      6          6           0        1.932860    0.198354    0.212540
      7          1           0        1.858491    0.466043    1.142769
      8          1           0        2.863330    0.281664   -0.050610
      9          6           0        1.497126   -1.244396    0.067800
     10          1           0        1.643154   -1.536870   -0.844933
     11          1           0        2.031306   -1.804500    0.652206
     12          6           0        0.020294   -1.403454    0.422020
     13          1           0       -0.123151   -1.151807    1.347949
     14          1           0       -0.243567   -2.330736    0.317267
     15          7           0       -2.264875   -0.597081   -0.105345
     16          1           0       -2.762781   -0.493477   -0.835571
     17          1           0       -2.441994   -1.399440    0.235278
     18          7           0       -0.906014    1.496352    0.871991
     19          1           0       -0.359612    1.254833    1.531064
     20          1           0       -0.916805    2.386311    0.829534
     21          1           0       -0.721698   -0.843376   -1.403242
     22          1           0        1.271440    0.957757   -1.587647
 ---------------------------------------------------------------------

 SCF Done:  E(RPBE1PBE) =  -345.714351381     A.U. after   12 cycles

 The electronic state is 1-A.
 Alpha  occ. eigenvalues --  -14.31767 -14.31639 -10.22591 -10.22543 -10.19345
 Alpha  occ. eigenvalues --  -10.19323 -10.19159 -10.18940  -0.92523  -0.88945
 Alpha  occ. eigenvalues --   -0.83932  -0.76720  -0.74464  -0.65039  -0.63303
 Alpha  occ. eigenvalues --   -0.57809  -0.53371  -0.50786  -0.49252  -0.48033
 Alpha  occ. eigenvalues --   -0.46920  -0.46180  -0.40330  -0.39551  -0.39075
 Alpha  occ. eigenvalues --   -0.37949  -0.37070  -0.34638  -0.32324  -0.31237
 Alpha  occ. eigenvalues --   -0.23628  -0.21267
 Alpha virt. eigenvalues --    0.07341   0.09404   0.10962   0.11164   0.13996
 Alpha virt. eigenvalues --    0.14720   0.15288   0.16022   0.16994   0.18898
 Alpha virt. eigenvalues --    0.19908   0.20381   0.20840   0.22674   0.24165

 Mulliken charges:
               1
     1  C   -0.052702
     2  C   -0.022155
     3  H   -0.045794
     4  C    0.143563
     5  H   -0.040100
     6  C    0.066582
     7  H   -0.037565
     8  H   -0.028354
     9  C    0.081243
    10  H   -0.035010
    11  H   -0.029330
    12  C    0.131548
    13  H   -0.032696
    14  H   -0.032098
    15  N   -0.045219
    16  H    0.033234
    17  H    0.027210
    18  N   -0.065324
    19  H    0.023257
    20  H    0.039187
    21  H   -0.040686
    22  H   -0.038792
 Sum of Mulliken charges =  -0.00000

 Dipole moment (field-independent basis, Debye):
    X=              1.3830    Y=             -0.5172    Z=             -1.0609  Tot=              1.8181
 Quadrupole moment (field-independent basis, Debye-Ang):
   XX=            -52.5774   YY=            -46.1131   ZZ=            -48.5162
   XY=              2.9758   XZ=              4.1223   YZ=              0.0642

  Exact polarizability:      71.865       0.309      66.093      -0.069      -1.202      58.061
 Approx polarizability:      89.968      -0.522      84.630      -1.018      -1.281      82.943

 Summary of Natural Population Analysis:

                                       Natural Population
                Natural  -----------------------------------------------
    Atom  No    Charge         Core      Valence    Rydberg      Total
 -----------------------------------------------------------------------
      C    1   -0.00091      1.99896     3.98349    0.01846     6.00091
      C    2   -0.00651      1.99897     3.98703    0.02051     6.00651
      H    3    0.17948      0.00000     0.81658    0.00394     0.82052
      C    4   -0.38783      1.99904     4.37479    0.01400     6.38783
      H    5    0.18897      0.00000     0.80643    0.00459     0.81103
      C    6   -0.36369      1.99910     4.35172    0.01287     6.36369
      H    7    0.17383      0.00000     0.82091    0.00527     0.82617
      H    8    0.19022      0.00000     0.80639    0.00339     0.80978
      C    9   -0.35756      1.99910     4.34585    0.01261     6.35756
      H   10    0.17717      0.00000     0.81855    0.00428     0.82283
      H   11    0.18874      0.00000     0.80775    0.00351     0.81126
      C   12   -0.38270      1.99906     4.36928    0.01436     6.38270
      H   13    0.18453      0.00000     0.81017    0.00529     0.81547
      H   14    0.18885      0.00000     0.80687    0.00427     0.81115
      N   15   -0.79094      1.99940     5.76773    0.02381     7.79094
      H   16    0.31643      0.00000     0.67834    0.00523     0.68357
      H   17    0.31625      0.00000     0.67844    0.00531     0.68375
      N   18   -0.79194      1.99942     5.76859    0.02393     7.79194
      H   19    0.31245      0.00000     0.68249    0.00507     0.68755
      H   20    0.32064      0.00000     0.67458    0.00479     0.67936
      H   21    0.16140      0.00000     0.83436    0.00424     0.83860
      H   22    0.18313      0.00000     0.81239    0.00448     0.81687
 =======================================================================
   * Total *    0.00000     15.99304    47.80274    0.20421    64.00000

 ******   17 imaginary frequencies (negative Signs) ******

                      1                      2                      3
                      A                      A                      A
 Frequencies --  -1672.5379             -1646.6088             -1466.6415
 Red. masses --      1.0571                 1.0330                 1.1505
 Frc consts  --      1.7423                 1.6502                 1.4581
 IR Inten    --     18.2476                77.7778               104.3040

                      4                      5                      6
                      A                      A                      A
 Frequencies --  -1462.3562             -1116.2882             -1102.5198
 Red. masses --      1.1402                 1.0541                 1.0419
 Frc consts  --      1.4367                 0.7739                 0.7462
 IR Inten    --    236.1791                 1.4993                 1.0649

                      7                      8                      9
                      A                      A                      A
 Frequencies --  -1093.3355             -1057.6552             -1050.4604
 Red. masses --      1.0633                 1.0652                 1.0703
 Frc consts  --      0.7489                 0.7021                 0.6958
 IR Inten    --      1.5075                 2.2126                 2.1603

                     10                     11                     12
                      A                      A                      A
 Frequencies --  -1038.3723              -592.3706              -580.8199
 Red. masses --      1.0293                 1.1244                 1.2088
 Frc consts  --      0.6539                 0.2325                 0.2403
 IR Inten    --      2.6639                 0.5890                 0.6500

                     13                     14                     15
                      A                      A                      A
 Frequencies --   -551.5881              -504.0108              -468.0088
 Red. masses --      1.2014                 1.5156                 1.4635
 Frc consts  --      0.2154                 0.2268                 0.1889
 IR Inten    --      0.1400                 2.1325                 0.6348

                     16                     17                     18
                      A                      A                      A
 Frequencies --   -312.0542              -298.2101               166.8425
 Red. masses --      1.4219                 1.8243                 1.5473
 Frc consts  --      0.0816                 0.0956                 0.0254
 IR Inten    --      2.2430                 0.2792                 3.9090

                     19                     20                     21
                      A                      A                      A
 Frequencies --    277.5924               388.8541               534.2841
 Red. masses --      1.3179                 1.9035                 1.6117
 Frc consts  --      0.0598                 0.1696                 0.2711
 IR Inten    --      0.4364                 0.9189                 5.6939

                     22                     23                     24
                      A                      A                      A
 Frequencies --    583.2653               620.5514               647.5714
 Red. masses --      2.5651                 1.6252                 1.5685
 Frc consts  --      0.5141                 0.3687                 0.3875
 IR Inten    --      6.6720                 2.7021                 3.3017

                     25                     26                     27
                      A                      A                      A
 Frequencies --    691.1879               712.6540               753.7009
 Red. masses --      1.7901                 1.8238                 1.7463
 Frc consts  --      0.5039                 0.5457                 0.5845
 IR Inten    --      5.5567                13.0955                 3.2103

                     28                     29                     30
                      A                      A                      A
 Frequencies --    804.9106               838.0684               853.7450
 Red. masses --      1.7444                 2.2350                 1.5656
 Frc consts  --      0.6659                 0.9249                 0.6723
 IR Inten    --     37.5504                 2.2801                 2.6626

                     31                     32                     33
                      A                      A                      A
 Frequencies --    887.4315               899.5029               925.6781
 Red. masses --      1.9135                 1.7293                 2.0922
 Frc consts  --      0.8879                 0.8244                 1.0563
 IR Inten    --      5.3024                 5.2959                 5.8211

                     34                     35                     36
                      A                      A                      A
 Frequencies --    957.2232               977.9060               985.6903
 Red. masses --      1.1880                 1.3152                 1.2925
 Frc consts  --      0.6413                 0.7410                 0.7399
 IR Inten    --     10.1031                 6.2360                11.0654

                     37                     38                     39
                      A                      A                      A
 Frequencies --    997.7911              1007.3249              1058.0295
 Red. masses --      1.5378                 2.0743                 2.0766
 Frc consts  --      0.9021                 1.2401                 1.3696
 IR Inten    --      6.9004                14.7048                 4.3760

                     40                     41                     42
                      A                      A                      A
 Frequencies --   1088.7453              1122.0482              1133.3508
 Red. masses --      2.7860                 4.0042                 3.2747
 Frc consts  --      1.9457                 2.9702                 2.4783
 IR Inten    --      7.2736                 9.0533                 3.9232

                     43                     44                     45
                      A                      A                      A
 Frequencies --   1179.7519              1214.2126              1230.2329
 Red. masses --      4.5238                 5.6095                 6.0065
 Frc consts  --      3.7097                 4.8726                 5.3561
 IR Inten    --     14.9860                 1.4747                 4.8698

                     46                     47                     48
                      A                      A                      A
 Frequencies --   1325.0940              4343.3023              4363.8675
 Red. masses --      6.0305                 1.0872                 1.0880
 Frc consts  --      6.2388                12.0834                12.2078
 IR Inten    --      1.1463                23.2059                17.8368

                     49                     50                     51
                      A                      A                      A
 Frequencies --   4410.8798              4416.1817              4420.6098
 Red. masses --      1.0598                 1.0609                 1.0596
 Frc consts  --     12.1484                12.1903                12.1994
 IR Inten    --     16.1027                19.6322                13.0616

                     52                     53                     54
                      A                      A                      A
 Frequencies --   4425.0664              4529.4862              4536.1001
 Red. masses --      1.0609                 1.1090                 1.1080
 Frc consts  --     12.2393                13.4049                13.4327
 IR Inten    --     17.0161                 3.6777                14.3539

                     55                     56                     57
                      A                      A                      A
 Frequencies --   4540.8838              4546.6177              5267.3890
 Red. masses --      1.1090                 1.1083                 1.0506
 Frc consts  --     13.4725                13.4985                17.1736
 IR Inten    --      5.4446                15.4573                 4.2820

                     58                     59                     60
                      A                      A                      A
 Frequencies --   5276.5237              5409.2824              5414.7742
 Red. masses --      1.0507                 1.0951                 1.0951
 Frc consts  --     17.2356                18.8790                18.9180
 IR Inten    --      3.3492                 7.8565                 8.3777

 - Thermochemistry -
 -------------------
 Temperature   298.150 Kelvin.  Pressure   1.00000 Atm.
 Atom     1 has atomic number  6 and mass  12.00000

 Molecular mass:   114.11570 amu.
 Principal axes and moments of inertia in atomic units:
                           1         2         3
     Eigenvalues --   628.18189 910.492651268.87939
           X            0.99977   0.01978   0.00827
           Y           -0.01973   0.99979  -0.00525
           Z           -0.00838   0.00509   0.99995
 This molecule is an asymmetric top.
 Rotational symmetry number  1.
 Warning -- assumption of classical behavior for rotation
           may cause significant error
 Rotational temperatures (Kelvin)      0.13788     0.09513     0.06826
 Rotational constants (GHZ):           2.87296     1.98216     1.42231
   17 imaginary frequencies ignored.
 Zero-point vibrational energy     542890.5 (Joules/Mol)
                                  129.75395 (Kcal/Mol)
 Warning -- explicit consideration of   6 degrees of freedom as
           vibrations may cause significant error
 Vibrational temperatures:    240.05   399.39   559.47   768.72   839.19
          (Kelvin)            892.83   931.71   994.47  1025.35  1084.41
                             1158.09  1205.79  1228.35  1276.82  1294.18
                             1331.84  1377.23  1406.99  1418.19  1435.60
                             1449.32  1522.27  1566.46  1614.38  1630.64
                             1697.40  1746.98  1770.03  1906.51  6249.04
                             6278.63  6346.27  6353.90  6360.27  6366.68
                             6516.92  6526.44  6533.32  6541.57  7578.60
                             7591.74  7782.75  7790.65

 Zero-point correction=                           0.206776 (Hartree/Particle)
 Thermal correction to Energy=                    0.212687
 Thermal correction to Enthalpy=                  0.213631
 Thermal correction to Gibbs Free Energy=         0.176680
 Sum of electronic and zero-point Energies=           -345.507575
 Sum of electronic and thermal Energies=              -345.501665
 Sum of electronic and thermal Enthalpies=            -345.500720
 Sum of electronic and thermal Free Energies=         -345.537671

                     E (Thermal)             CV                S
                      KCal/Mol        Cal/Mol-Kelvin    Cal/Mol-Kelvin
 Total                  133.463             24.710             77.770
 Electronic               0.000              0.000              0.000
 Translational            0.889              2.981             40.112
 Rotational               0.889              2.981             28.075
 Vibrational            131.686             18.749              9.583
 Vibration     1          0.624              1.883              2.471
 Vibration     2          0.679              1.715              1.548
 Vibration     3          0.757              1.494              1.005
 Vibration     4          0.889              1.174              0.578
 Vibration     5          0.940              1.068              0.479
 Vibration     6          0.981              0.989              0.416

 Normal termination of Gaussian 16 at Sat Mar  4 11:38:24 2023.
