 Gaussian 16, Revision C.01,
 Gaussian 16:  ES64L-G16RevC.01  3-Jul-2019

 ----------------------------------------------------------------------
 #p pop=(regular,nbo,savenbos) freq=noraman def2svp empiricaldispersion
 =gd3bj output=wfx pbe1pbe
 ----------------------------------------------------------------------

 ----------------------------------------
 KAYKIF_Complex_6_Ligand_0_NN_Cu_oriented
 ----------------------------------------
 Symbolic Z-matrix:
 Charge =  0 Multiplicity = 1

                         Standard orientation:
 ---------------------------------------------------------------------
 Center     Atomic      Atomic             Coordinates (Angstroms)
 Number     Number       Type             X           Y           Z
 ---------------------------------------------------------------------
      1          8           0       -2.607306    1.564359    0.073800
      2          8           0        1.634402    0.771306    1.108613
      3          7           0       -1.490093    2.500011   -0.049884
      4          7           0        1.024767    2.072429    1.008381
      5          6           0       -0.454804    1.829865   -0.925356
      6          1           0       -0.593713    2.097751   -1.837626
      7          6           0       -0.801209    0.359546   -0.775748
      8          1           0       -0.473415   -0.155022   -1.516583
      9          1           0       -0.448896    0.000542    0.041660
     10          6           0       -2.318783    0.396878   -0.751611
     11          1           0       -2.653866    0.536318   -1.641110
     12          6           0        0.907555    2.300945   -0.463659
     13          6           0        2.083914    1.525258   -1.097241
     14          1           0        1.765950    0.925033   -1.774863
     15          1           0        2.722300    2.127454   -1.486790
     16          6           0        2.693824    0.737882    0.072938
     17          1           0        3.458879    1.216982    0.396520
     18          6           0        3.074376   -0.699262   -0.134123
     19          6           0        2.441256   -1.558836   -1.007575
     20          1           0        1.715313   -1.233074   -1.546255
     21          6           0        2.834492   -2.874884   -1.132068
     22          1           0        2.367735   -3.459263   -1.733610
     23          6           0        3.893625   -3.369174   -0.376855
     24          1           0        4.156555   -4.290037   -0.448421
     25          6           0        4.548267   -2.503711    0.489840
     26          1           0        5.307629   -2.819351    0.985914
     27          6           0        4.142403   -1.198055    0.618981
     28          1           0        4.587187   -0.623579    1.246595
     29          6           0       -2.998189   -0.798034   -0.140119
     30          6           0       -3.827726   -1.574060   -0.928957
     31          1           0       -4.002512   -1.317505   -1.836344
     32          6           0       -4.424547   -2.716204   -0.412970
     33          1           0       -4.955256   -3.287977   -0.969993
     34          6           0       -4.220574   -3.039788    0.930737
     35          1           0       -4.664517   -3.805965    1.301840
     36          6           0       -3.410075   -2.266863    1.710931
     37          1           0       -3.268930   -2.509532    2.629203
     38          6           0       -2.784848   -1.141779    1.183491
     39          1           0       -2.212961   -0.599819    1.731854
     40          6           0       -2.034506    3.745337   -0.601113
     41          1           0       -2.699723    4.098678   -0.005960
     42          1           0       -1.329444    4.387070   -0.720168
     43          1           0       -2.426744    3.570573   -1.460058
     44          6           0        1.896538    3.069945    1.679256
     45          1           0        2.723888    3.150646    1.200047
     46          1           0        1.451066    3.920405    1.710959
     47          1           0        2.064010    2.789834    2.582511
     48          1           0        1.004032    3.237389   -0.650765
 ---------------------------------------------------------------------

 SCF Done:  E(RPBE1PBE) =  -1034.12033198     A.U. after   14 cycles

 The electronic state is 1-A.
 Alpha  occ. eigenvalues --  -19.22682 -19.21180 -14.41841 -14.40744 -10.27231
 Alpha  occ. eigenvalues --  -10.26290 -10.25507 -10.24773 -10.24156 -10.22882
 Alpha  occ. eigenvalues --  -10.22507 -10.22450 -10.22382 -10.22337 -10.22273
 Alpha  occ. eigenvalues --  -10.21571 -10.21565 -10.21475 -10.21324 -10.21200
 Alpha  occ. eigenvalues --  -10.21113 -10.21047 -10.20574 -10.20052  -1.07801
 Alpha  occ. eigenvalues --   -1.06069  -0.89304  -0.88571  -0.87574  -0.85298
 Alpha  occ. eigenvalues --   -0.83684  -0.81239  -0.78180  -0.77953  -0.77137
 Alpha  occ. eigenvalues --   -0.76528  -0.73776  -0.71294  -0.67071  -0.65862
 Alpha  occ. eigenvalues --   -0.64688  -0.64209  -0.63158  -0.61414  -0.60667
 Alpha  occ. eigenvalues --   -0.59331  -0.56441  -0.55192  -0.54182  -0.53315
 Alpha  occ. eigenvalues --   -0.51531  -0.50851  -0.49520  -0.48854  -0.48265
 Alpha  occ. eigenvalues --   -0.47065  -0.46780  -0.46294  -0.45958  -0.45472
 Alpha  occ. eigenvalues --   -0.45166  -0.44727  -0.44440  -0.43885  -0.43075
 Alpha  occ. eigenvalues --   -0.42247  -0.40886  -0.40232  -0.39882  -0.38561
 Alpha  occ. eigenvalues --   -0.38382  -0.37442  -0.37241  -0.36726  -0.35839
 Alpha  occ. eigenvalues --   -0.35216  -0.35015  -0.34507  -0.33003  -0.30748
 Alpha  occ. eigenvalues --   -0.28950  -0.27071  -0.26736  -0.25996  -0.25189
 Alpha  occ. eigenvalues --   -0.22836  -0.19483
 Alpha virt. eigenvalues --   -0.01342  -0.00381  -0.00033   0.00745   0.06514
 Alpha virt. eigenvalues --    0.08145   0.09025   0.10429   0.10543   0.10915
 Alpha virt. eigenvalues --    0.11461   0.12246   0.12764   0.13245   0.13555

 Mulliken charges:
               1
     1  O   -0.368068
     2  O   -0.339853
     3  N   -0.254428
     4  N   -0.226504
     5  C    0.100028
     6  H   -0.057566
     7  C    0.245900
     8  H   -0.021136
     9  H   -0.026271
    10  C    0.258307
    11  H   -0.075113
    12  C    0.068306
    13  C    0.276734
    14  H   -0.054409
    15  H   -0.031400
    16  C    0.206088
    17  H   -0.048875
    18  C   -0.009419
    19  C    0.063440
    20  H   -0.106472
    21  C    0.077646
    22  H   -0.069113
    23  C    0.077085
    24  H   -0.063706
    25  C    0.074804
    26  H   -0.065516
    27  C    0.065154
    28  H   -0.080041
    29  C   -0.027707
    30  C    0.054980
    31  H   -0.089428
    32  C    0.069056
    33  H   -0.071632
    34  C    0.070474
    35  H   -0.067230
    36  C    0.074997
    37  H   -0.066934
    38  C    0.081991
    39  H   -0.059468
    40  C    0.332988
    41  H   -0.006474
    42  H   -0.037804
    43  H   -0.056786
    44  C    0.315985
    45  H   -0.051001
    46  H   -0.018201
    47  H   -0.008962
    48  H   -0.054448
 Sum of Mulliken charges =  -0.00000

 Dipole moment (field-independent basis, Debye):
    X=              2.9637    Y=              0.8812    Z=             -3.1280  Tot=              4.3983
 Quadrupole moment (field-independent basis, Debye-Ang):
   XX=           -136.8932   YY=           -123.8997   ZZ=           -135.5405
   XY=              7.7078   XZ=              6.6486   YZ=             -3.4368

  Exact polarizability:     204.752       6.653     240.513      17.426       1.414     169.389
 Approx polarizability:     272.679      15.080     335.853      35.415       4.984     283.687

 Summary of Natural Population Analysis:

                                       Natural Population
                Natural  -----------------------------------------------
    Atom  No    Charge         Core      Valence    Rydberg      Total
 -----------------------------------------------------------------------
      O    1   -0.46174      1.99978     6.44935    0.01261     8.46174
      O    2   -0.45251      1.99979     6.44055    0.01217     8.45251
      N    3   -0.23291      1.99940     5.21388    0.01964     7.23291
      N    4   -0.21317      1.99941     5.19187    0.02189     7.21317
      C    5   -0.00130      1.99892     3.98155    0.02083     6.00130
      H    6    0.16123      0.00000     0.83177    0.00700     0.83877
      C    7   -0.38547      1.99903     4.37015    0.01628     6.38547
      H    8    0.19293      0.00000     0.80389    0.00318     0.80707
      H    9    0.21424      0.00000     0.78030    0.00547     0.78576
      C   10    0.16012      1.99884     3.81591    0.02512     5.83988
      H   11    0.15012      0.00000     0.84361    0.00627     0.84988
      C   12    0.00214      1.99893     3.97734    0.02159     5.99786
      C   13   -0.39120      1.99908     4.37752    0.01460     6.39120
      H   14    0.18954      0.00000     0.80697    0.00349     0.81046
      H   15    0.19729      0.00000     0.79973    0.00297     0.80271
      C   16    0.13544      1.99884     3.84271    0.02301     5.86456
      H   17    0.15460      0.00000     0.83876    0.00664     0.84540
      C   18   -0.04906      1.99897     4.03246    0.01763     6.04906
      C   19   -0.18087      1.99898     4.16698    0.01491     6.18087
      H   20    0.18167      0.00000     0.81468    0.00365     0.81833
      C   21   -0.16840      1.99910     4.15534    0.01395     6.16840
      H   22    0.18348      0.00000     0.81355    0.00298     0.81652
      C   23   -0.17412      1.99912     4.16123    0.01377     6.17412
      H   24    0.18319      0.00000     0.81392    0.00289     0.81681
      C   25   -0.17432      1.99910     4.16133    0.01390     6.17432
      H   26    0.18364      0.00000     0.81330    0.00306     0.81636
      C   27   -0.16802      1.99901     4.15381    0.01520     6.16802
      H   28    0.18467      0.00000     0.81217    0.00316     0.81533
      C   29   -0.05385      1.99896     4.03670    0.01818     6.05385
      C   30   -0.18525      1.99899     4.17156    0.01470     6.18525
      H   31    0.18187      0.00000     0.81490    0.00323     0.81813
      C   32   -0.17142      1.99912     4.15825    0.01405     6.17142
      H   33    0.18060      0.00000     0.81648    0.00292     0.81940
      C   34   -0.18430      1.99910     4.17137    0.01384     6.18430
      H   35    0.18109      0.00000     0.81585    0.00306     0.81891
      C   36   -0.17398      1.99909     4.16091    0.01398     6.17398
      H   37    0.18388      0.00000     0.81309    0.00303     0.81612
      C   38   -0.15950      1.99900     4.14464    0.01587     6.15950
      H   39    0.19726      0.00000     0.79889    0.00384     0.80274
      C   40   -0.31382      1.99909     4.30422    0.01051     6.31382
      H   41    0.18935      0.00000     0.80825    0.00240     0.81065
      H   42    0.17224      0.00000     0.82520    0.00256     0.82776
      H   43    0.15211      0.00000     0.84245    0.00544     0.84789
      C   44   -0.32150      1.99907     4.31219    0.01024     6.32150
      H   45    0.14680      0.00000     0.84914    0.00405     0.85320
      H   46    0.18514      0.00000     0.81228    0.00258     0.81486
      H   47    0.19128      0.00000     0.80604    0.00268     0.80872
      H   48    0.18075      0.00000     0.81417    0.00508     0.81925
 =======================================================================
   * Total *   -0.00000     47.97868   125.54122    0.48009   174.00000

 ******   37 imaginary frequencies (negative Signs) ******

                      1                      2                      3
                      A                      A                      A
 Frequencies --  -1398.7676             -1398.0330             -1181.9935
 Red. masses --      1.0091                 1.0088                 1.0809
 Frc consts  --      1.1633                 1.1617                 0.8898
 IR Inten    --      0.0981                 0.2102                76.0838

                      4                      5                      6
                      A                      A                      A
 Frequencies --  -1175.1458             -1159.7379             -1147.3146
 Red. masses --      1.0808                 1.0260                 1.0242
 Frc consts  --      0.8794                 0.8131                 0.7944
 IR Inten    --     71.9783                 3.5509                 2.1453

                      7                      8                      9
                      A                      A                      A
 Frequencies --  -1074.7025             -1067.8242             -1006.8596
 Red. masses --      1.0294                 1.0296                 1.0206
 Frc consts  --      0.7005                 0.6917                 0.6096
 IR Inten    --      0.4118                 0.2515                 0.5601

                     10                     11                     12
                      A                      A                      A
 Frequencies --  -1000.2532              -964.7134              -958.8402
 Red. masses --      1.0196                 1.0552                 1.0586
 Frc consts  --      0.6010                 0.5786                 0.5734
 IR Inten    --      1.0914                 6.4217                 8.0066

                     13                     14                     15
                      A                      A                      A
 Frequencies --   -942.9229              -923.9843              -916.6797
 Red. masses --      1.0097                 1.0084                 1.0774
 Frc consts  --      0.5289                 0.5073                 0.5334
 IR Inten    --      0.1428                 0.0881                 1.3059

                     16                     17                     18
                      A                      A                      A
 Frequencies --   -909.8097              -838.5261              -831.7317
 Red. masses --      1.0679                 1.0253                 1.0256
 Frc consts  --      0.5208                 0.4248                 0.4180
 IR Inten    --      4.5615                 0.2935                 0.6827

                     19                     20                     21
                      A                      A                      A
 Frequencies --   -738.0358              -700.3414              -616.3981
 Red. masses --      1.1265                 1.1374                 1.2067
 Frc consts  --      0.3615                 0.3287                 0.2701
 IR Inten    --      0.6900                 3.0600                 9.8164

                     22                     23                     24
                      A                      A                      A
 Frequencies --   -602.7224              -587.7112              -567.5439
 Red. masses --      1.1410                 1.3280                 1.2843
 Frc consts  --      0.2442                 0.2703                 0.2437
 IR Inten    --     16.5748                 1.1769                 1.7108

                     25                     26                     27
                      A                      A                      A
 Frequencies --   -523.8608              -519.8635              -506.8887
 Red. masses --      1.4100                 1.2778                 1.4141
 Frc consts  --      0.2280                 0.2035                 0.2141
 IR Inten    --      5.1768                 0.6865                 1.9115

                     28                     29                     30
                      A                      A                      A
 Frequencies --   -503.4246              -491.3841              -471.1270
 Red. masses --      1.2472                 1.1819                 1.2284
 Frc consts  --      0.1862                 0.1681                 0.1606
 IR Inten    --      0.1846                 0.6902                 0.6239

                     31                     32                     33
                      A                      A                      A
 Frequencies --   -468.5688              -444.8806              -423.3341
 Red. masses --      1.3280                 1.3987                 1.5490
 Frc consts  --      0.1718                 0.1631                 0.1636
 IR Inten    --      1.5146                 1.0551                 3.2034

                     34                     35                     36
                      A                      A                      A
 Frequencies --   -387.4585              -297.3856              -271.3338
 Red. masses --      1.7393                 1.7003                 1.2323
 Frc consts  --      0.1538                 0.0886                 0.0535
 IR Inten    --      1.0350                 0.9017                12.7904

                     37                     38                     39
                      A                      A                      A
 Frequencies --   -203.4204               124.2814               185.8254
 Red. masses --      1.1868                 6.0199                 4.1357
 Frc consts  --      0.0289                 0.0548                 0.0841
 IR Inten    --     10.5175                 0.2659                 0.4730

                     40                     41                     42
                      A                      A                      A
 Frequencies --    197.9598               213.2725               217.9183
 Red. masses --      3.3627                 3.6377                 6.3322
 Frc consts  --      0.0776                 0.0975                 0.1772
 IR Inten    --      3.7934                 1.3800                 1.4722

                     43                     44                     45
                      A                      A                      A
 Frequencies --    239.5274               268.1730               288.0885
 Red. masses --      2.5541                 1.7576                 2.1336
 Frc consts  --      0.0863                 0.0745                 0.1043
 IR Inten    --      3.3120                 9.6434                 5.9677

                     46                     47                     48
                      A                      A                      A
 Frequencies --    300.1285               326.0022               361.7028
 Red. masses --      4.6335                 1.7364                 2.9243
 Frc consts  --      0.2459                 0.1087                 0.2254
 IR Inten    --      0.2226                 8.1405                 3.3240

                     49                     50                     51
                      A                      A                      A
 Frequencies --    372.2933               374.9349               412.3026
 Red. masses --      3.2897                 2.4041                 3.5607
 Frc consts  --      0.2686                 0.1991                 0.3566
 IR Inten    --      0.5706                 1.0942                 3.7086

                     52                     53                     54
                      A                      A                      A
 Frequencies --    450.5707               478.0206               502.9881
 Red. masses --      4.3044                 3.7783                 1.4420
 Frc consts  --      0.5149                 0.5087                 0.2150
 IR Inten    --      2.7487                 2.0282                 0.5106

                     55                     56                     57
                      A                      A                      A
 Frequencies --    511.6242               538.4759               555.8228
 Red. masses --      3.0225                 1.4136                11.5033
 Frc consts  --      0.4661                 0.2415                 2.0938
 IR Inten    --      2.1367                 0.6634                 0.0969

                     58                     59                     60
                      A                      A                      A
 Frequencies --    559.1710               568.8156               580.4197
 Red. masses --      8.0240                 5.6346                 4.2241
 Frc consts  --      1.4782                 1.0741                 0.8384
 IR Inten    --      1.5348                 1.1929                 8.8871

                     61                     62                     63
                      A                      A                      A
 Frequencies --    597.3436               642.1402               651.5442
 Red. masses --      2.9046                 4.8111                 3.4663
 Frc consts  --      0.6106                 1.1688                 0.8670
 IR Inten    --     10.9357                 9.2676                 2.5376

                     64                     65                     66
                      A                      A                      A
 Frequencies --    666.1424               690.4700               710.5939
 Red. masses --      5.1412                 5.7944                 5.4307
 Frc consts  --      1.3441                 1.6276                 1.6156
 IR Inten    --      5.9606                 6.5649                 2.6680

                     67                     68                     69
                      A                      A                      A
 Frequencies --    728.6176               734.0284               776.9006
 Red. masses --      2.8167                 3.1883                 4.5897
 Frc consts  --      0.8810                 1.0121                 1.6322
 IR Inten    --      1.8018                 0.9416                 4.2439

                     70                     71                     72
                      A                      A                      A
 Frequencies --    783.4186               799.3261               808.3480
 Red. masses --      3.2176                 3.3957                 6.4411
 Frc consts  --      1.1635                 1.2783                 2.4798
 IR Inten    --      3.8670                19.2073                 1.4501

                     73                     74                     75
                      A                      A                      A
 Frequencies --    810.1831               816.2179               823.4801
 Red. masses --      5.9627                 3.5209                 3.2795
 Frc consts  --      2.3060                 1.3820                 1.3103
 IR Inten    --      6.9803                 0.8622                 7.3028

                     76                     77                     78
                      A                      A                      A
 Frequencies --    828.5689               829.9364               839.3203
 Red. masses --      3.2191                 3.1264                 3.3316
 Frc consts  --      1.3021                 1.2688                 1.3828
 IR Inten    --      0.3936                12.7749                 5.9496

                     79                     80                     81
                      A                      A                      A
 Frequencies --    846.2371               869.3955               896.4005
 Red. masses --      3.2020                 3.2966                 2.5626
 Frc consts  --      1.3510                 1.4681                 1.2132
 IR Inten    --      9.1871                15.4015                11.3874

                     82                     83                     84
                      A                      A                      A
 Frequencies --    901.7682               905.1800               946.0959
 Red. masses --      1.6323                 1.6772                 2.7062
 Frc consts  --      0.7820                 0.8096                 1.4272
 IR Inten    --     14.2050                18.7299                 0.2050

                     85                     86                     87
                      A                      A                      A
 Frequencies --    957.6965               969.9838               985.6601
 Red. masses --      2.1520                 1.5280                 3.1209
 Frc consts  --      1.1629                 0.8470                 1.7864
 IR Inten    --     17.4366                 6.7020                18.2296

                     88                     89                     90
                      A                      A                      A
 Frequencies --    993.7477              1008.8957              1026.4933
 Red. masses --      2.2963                 5.4343                 1.4184
 Frc consts  --      1.3360                 3.2590                 0.8806
 IR Inten    --      3.4389                45.7794                13.5915

                     91                     92                     93
                      A                      A                      A
 Frequencies --   1034.7317              1049.6537              1050.8766
 Red. masses --      1.2982                 5.3772                 6.1538
 Frc consts  --      0.8189                 3.4906                 4.0040
 IR Inten    --     34.7268                 0.2823                 0.8682

                     94                     95                     96
                      A                      A                      A
 Frequencies --   1064.3563              1078.7491              1082.4347
 Red. masses --      3.4071                 2.7466                 3.2642
 Frc consts  --      2.2741                 1.8831                 2.2534
 IR Inten    --      9.3626                 5.1219                 9.9264

                     97                     98                     99
                      A                      A                      A
 Frequencies --   1094.3143              1124.3003              1158.1207
 Red. masses --      3.9829                 5.2276                 5.3344
 Frc consts  --      2.8101                 3.8933                 4.2155
 IR Inten    --      9.4132                16.7070                 5.4121

                    100                    101                    102
                      A                      A                      A
 Frequencies --   1167.5724              1187.0906              1250.0280
 Red. masses --      4.9110                 5.5560                 8.2316
 Frc consts  --      3.9445                 4.6130                 7.5784
 IR Inten    --      6.2344                 1.2066                 6.5121

                    103                    104                    105
                      A                      A                      A
 Frequencies --   1252.7025              1291.3624              1383.3232
 Red. masses --      7.8073                 8.5698                 8.2237
 Frc consts  --      7.2185                 8.4201                 9.2718
 IR Inten    --     11.1216                 2.9094                 0.6417

                    106                    107                    108
                      A                      A                      A
 Frequencies --   1405.9149              1432.8727              1434.0675
 Red. masses --      7.8931                 8.5586                 8.0509
 Frc consts  --      9.1922                10.3530                 9.7552
 IR Inten    --      0.8473                 0.4772                 0.5764

                    109                    110                    111
                      A                      A                      A
 Frequencies --   1474.3314              1489.6657              1658.6160
 Red. masses --      8.6630                 8.7047                10.7106
 Frc consts  --     11.0945                11.3810                17.3602
 IR Inten    --      0.0684                 0.4159                 1.9077

                    112                    113                    114
                      A                      A                      A
 Frequencies --   1658.8093              1705.9888              1712.5667
 Red. masses --     10.0874                10.6554                10.1092
 Frc consts  --     16.3539                18.2715                17.4687
 IR Inten    --      0.2157                 1.7511                 0.1504

                    115                    116                    117
                      A                      A                      A
 Frequencies --   4462.0908              4466.9904              4548.7597
 Red. masses --      1.0317                 1.0313                 1.0593
 Frc consts  --     12.1027                12.1241                12.9139
 IR Inten    --     24.9552                15.4033                 3.2371

                    118                    119                    120
                      A                      A                      A
 Frequencies --   4553.3546              4583.1818              4595.8542
 Red. masses --      1.0592                 1.0869                 1.0878
 Frc consts  --     12.9391                13.4521                13.5368
 IR Inten    --      3.2675                16.5585                17.6185

                    121                    122                    123
                      A                      A                      A
 Frequencies --   4620.3084              4624.7320              4625.1252
 Red. masses --      1.0882                 1.0881                 1.0879
 Frc consts  --     13.6864                13.7118                13.7118
 IR Inten    --      6.0893                 3.4255                 7.1185

                    124                    125                    126
                      A                      A                      A
 Frequencies --   4631.0827              4632.4007              4640.6262
 Red. masses --      1.0872                 1.0869                 1.0892
 Frc consts  --     13.7375                13.7416                13.8199
 IR Inten    --      0.3841                 0.5037                 0.1945

                    127                    128                    129
                      A                      A                      A
 Frequencies --   4644.1117              4645.8939              4649.4082
 Red. masses --      1.0901                 1.0916                 1.0888
 Frc consts  --     13.8519                13.8819                13.8677
 IR Inten    --      0.9426                 1.5629                 1.0235

                    130                    131                    132
                      A                      A                      A
 Frequencies --   4651.8629              4652.8439              4655.7219
 Red. masses --      1.0921                 1.0933                 1.1056
 Frc consts  --     13.9240                13.9450                14.1198
 IR Inten    --      1.0554                 0.4953                14.7811

                    133                    134                    135
                      A                      A                      A
 Frequencies --   4667.2632              4674.1870              4677.9133
 Red. masses --      1.0920                 1.1076                 1.1074
 Frc consts  --     14.0148                14.2572                14.2777
 IR Inten    --      1.3743                 7.8256                 2.9548

                    136                    137                    138
                      A                      A                      A
 Frequencies --   4682.4725              4683.3670              4689.6315
 Red. masses --      1.1102                 1.1087                 1.1103
 Frc consts  --     14.3416                14.3278                14.3867
 IR Inten    --      3.2877                 1.2235                 4.4100

 - Thermochemistry -
 -------------------
 Temperature   298.150 Kelvin.  Pressure   1.00000 Atm.
 Atom     1 has atomic number  8 and mass  15.99491

 Molecular mass:   324.18378 amu.
 Principal axes and moments of inertia in atomic units:
                           1         2         3
     Eigenvalues --  6260.53008********************
           X            0.99995   0.00851   0.00477
           Y           -0.00850   0.99996  -0.00198
           Z           -0.00478   0.00194   0.99999
 This molecule is an asymmetric top.
 Rotational symmetry number  1.
 Warning -- assumption of classical behavior for rotation
           may cause significant error
 Rotational temperatures (Kelvin)      0.01383     0.00840     0.00594
 Rotational constants (GHZ):           0.28827     0.17494     0.12368
   37 imaginary frequencies ignored.
 Zero-point vibrational energy    1050764.4 (Joules/Mol)
                                  251.13872 (Kcal/Mol)
 Warning -- explicit consideration of  24 degrees of freedom as
           vibrations may cause significant error
 Vibrational temperatures:    178.81   267.36   284.82   306.85   313.54
          (Kelvin)            344.63   385.84   414.50   431.82   469.04
                              520.41   535.65   539.45   593.21   648.27
                              687.77   723.69   736.11   774.75   799.71
                              804.52   818.40   835.09   859.44   923.90
                              937.43   958.43   993.43  1022.39  1048.32
                             1056.10  1117.79  1127.16  1150.05  1163.03
                             1165.67  1174.36  1184.80  1192.13  1194.09
                             1207.59  1217.55  1250.87  1289.72  1297.44
                             1302.35  1361.22  1377.91  1395.59  1418.15
                             1429.78  1451.58  1476.89  1488.75  1510.22
                             1511.98  1531.37  1552.08  1557.38  1574.47
                             1617.62  1666.28  1679.88  1707.96  1798.51
                             1802.36  1857.98  1990.29  2022.80  2061.58
                             2063.30  2121.23  2143.30  2386.38  2386.66
                             2454.54  2464.00  6419.95  6427.00  6544.65
                             6551.26  6594.18  6612.41  6647.59  6653.96
                             6654.52  6663.10  6664.99  6676.83  6681.84
                             6684.41  6689.46  6692.99  6694.40  6698.55
                             6715.15  6725.11  6730.47  6737.03  6738.32
                             6747.33

 Zero-point correction=                           0.400215 (Hartree/Particle)
 Thermal correction to Energy=                    0.414010
 Thermal correction to Enthalpy=                  0.414954
 Thermal correction to Gibbs Free Energy=         0.360747
 Sum of electronic and zero-point Energies=          -1033.720117
 Sum of electronic and thermal Energies=             -1033.706322
 Sum of electronic and thermal Enthalpies=           -1033.705378
 Sum of electronic and thermal Free Energies=        -1033.759585

                     E (Thermal)             CV                S
                      KCal/Mol        Cal/Mol-Kelvin    Cal/Mol-Kelvin
 Total                  259.795             63.535            114.089
 Electronic               0.000              0.000              0.000
 Translational            0.889              2.981             43.224
 Rotational               0.889              2.981             35.198
 Vibrational            258.018             57.573             35.667
 Vibration     1          0.610              1.929              3.033
 Vibration     2          0.632              1.859              2.269
 Vibration     3          0.637              1.843              2.152
 Vibration     4          0.644              1.821              2.015
 Vibration     5          0.646              1.814              1.976
 Vibration     6          0.657              1.780              1.806
 Vibration     7          0.673              1.732              1.608
 Vibration     8          0.685              1.696              1.485
 Vibration     9          0.693              1.673              1.416
 Vibration    10          0.710              1.623              1.280
 Vibration    11          0.736              1.551              1.115
 Vibration    12          0.744              1.529              1.070
 Vibration    13          0.746              1.523              1.060
 Vibration    14          0.776              1.444              0.919
 Vibration    15          0.809              1.360              0.794
 Vibration    16          0.835              1.299              0.715
 Vibration    17          0.858              1.243              0.651
 Vibration    18          0.867              1.224              0.630
 Vibration    19          0.894              1.165              0.569
 Vibration    20          0.911              1.127              0.532
 Vibration    21          0.915              1.120              0.525
 Vibration    22          0.925              1.099              0.507
 Vibration    23          0.937              1.074              0.485
 Vibration    24          0.955              1.037              0.454

 Normal termination of Gaussian 16 at Sat Mar  4 13:51:57 2023.
