 Gaussian 16, Revision C.01,
 Gaussian 16:  ES64L-G16RevC.01  3-Jul-2019

 ----------------------------------------------------------------------
 #p pop=(regular,nbo,savenbos) freq=noraman def2svp empiricaldispersion
 =gd3bj output=wfx pbe1pbe
 ----------------------------------------------------------------------

 ----------------------------------------
 KEQFEU_Complex_0_Ligand_0_ON_Cu_oriented
 ----------------------------------------
 Symbolic Z-matrix:
 Charge = -1 Multiplicity = 1

                         Standard orientation:
 ---------------------------------------------------------------------
 Center     Atomic      Atomic             Coordinates (Angstroms)
 Number     Number       Type             X           Y           Z
 ---------------------------------------------------------------------
      1          7           0        2.109940   -0.078056    0.742892
      2          8           0        1.531501    2.578053    0.710823
      3          6           0        0.308269    2.222599    0.477428
      4          6           0        3.030206   -1.209601    0.417847
      5          6           0        3.064295   -2.201020    1.561157
      6          1           0        3.589930   -1.842249    2.279259
      7          1           0        3.454394   -3.024040    1.258328
      8          1           0        2.170998   -2.365245    1.870313
      9          6           0       -0.685843    3.228832    0.310614
     10          1           0       -0.433809    4.124155    0.315129
     11          6           0        0.937986   -0.159178    0.239227
     12          1           0        0.727430   -0.933925   -0.229330
     13          6           0       -2.422057    1.581053    0.074189
     14          6           0       -2.002731    2.907346    0.141475
     15          1           0       -2.631615    3.588457    0.070302
     16          6           0       -1.468037    0.551535    0.151540
     17          6           0       -0.100026    0.865722    0.339849
     18          8           0       -4.703802    2.182553   -0.044341
     19          6           0       -3.873352    1.282209   -0.079069
     20          6           0       -3.343832   -1.155569   -0.186540
     21          6           0       -4.280212   -0.124297   -0.270266
     22          6           0       -1.925126   -0.862668    0.145663
     23          6           0       -5.620168   -0.448355   -0.481255
     24          1           0       -6.256425    0.227278   -0.541565
     25          8           0       -1.177122   -1.779046    0.451488
     26          6           0       -3.743393   -2.477339   -0.317848
     27          1           0       -3.114700   -3.161171   -0.263130
     28          6           0       -6.006054   -1.774883   -0.600401
     29          1           0       -6.901100   -1.987541   -0.727255
     30          6           0       -5.069781   -2.779240   -0.529382
     31          1           0       -5.334066   -3.665905   -0.625054
     32          6           0        4.370069   -0.678412   -0.046014
     33          6           0        4.434596    0.455243   -0.851869
     34          1           0        3.658706    0.939443   -1.019461
     35          6           0        5.552613   -1.354844    0.214136
     36          1           0        5.541698   -2.099090    0.769730
     37          6           0        5.638666    0.881180   -1.411281
     38          1           0        5.662136    1.640255   -1.947233
     39          6           0        6.803156    0.163888   -1.165281
     40          1           0        7.607210    0.426880   -1.551800
     41          6           0        6.753196   -0.930041   -0.348865
     42          1           0        7.535354   -1.399802   -0.164859
     43          1           0        2.635017   -1.678547   -0.347705
 ---------------------------------------------------------------------

 SCF Done:  E(RPBE1PBE) =  -1164.09485513     A.U. after   20 cycles

 The electronic state is 1-A.
 Alpha  occ. eigenvalues --  -19.09276 -19.06846 -18.99691 -14.24067 -10.21392
 Alpha  occ. eigenvalues --  -10.19494 -10.15180 -10.15113 -10.14257 -10.14049
 Alpha  occ. eigenvalues --  -10.13982 -10.13849 -10.13800 -10.13790 -10.13708
 Alpha  occ. eigenvalues --  -10.12845 -10.12527 -10.12374 -10.12320 -10.12217
 Alpha  occ. eigenvalues --  -10.12055 -10.11404 -10.10619 -10.10604 -10.09398
 Alpha  occ. eigenvalues --  -10.08475 -10.07783  -0.95370  -0.92944  -0.83726
 Alpha  occ. eigenvalues --   -0.81200  -0.80544  -0.78261  -0.74938  -0.71231
 Alpha  occ. eigenvalues --   -0.70716  -0.69881  -0.68038  -0.66663  -0.65720
 Alpha  occ. eigenvalues --   -0.63094  -0.58779  -0.57505  -0.56930  -0.54790
 Alpha  occ. eigenvalues --   -0.53808  -0.52291  -0.51456  -0.49927  -0.48013
 Alpha  occ. eigenvalues --   -0.46527  -0.44649  -0.43986  -0.40937  -0.40584
 Alpha  occ. eigenvalues --   -0.40018  -0.39048  -0.38194  -0.37945  -0.37714
 Alpha  occ. eigenvalues --   -0.36700  -0.35526  -0.35405  -0.34591  -0.34270
 Alpha  occ. eigenvalues --   -0.33213  -0.32445  -0.31856  -0.31333  -0.31000
 Alpha  occ. eigenvalues --   -0.30047  -0.29880  -0.29119  -0.28801  -0.28261
 Alpha  occ. eigenvalues --   -0.27969  -0.26950  -0.26206  -0.25915  -0.24385
 Alpha  occ. eigenvalues --   -0.23141  -0.20160  -0.18729  -0.18618  -0.18304
 Alpha  occ. eigenvalues --   -0.17045  -0.16515  -0.16294  -0.14562  -0.13536
 Alpha  occ. eigenvalues --   -0.12945  -0.07502  -0.06487
 Alpha virt. eigenvalues --    0.01892   0.05767   0.08915   0.09262   0.09716
 Alpha virt. eigenvalues --    0.12145   0.15410   0.18186   0.18354   0.18763
 Alpha virt. eigenvalues --    0.19688   0.20691   0.21683   0.21951   0.22898

 Mulliken charges:
               1
     1  N   -0.213690
     2  O   -0.376847
     3  C    0.159130
     4  C    0.051223
     5  C    0.243554
     6  H   -0.029236
     7  H   -0.036116
     8  H   -0.027413
     9  C    0.042352
    10  H   -0.141410
    11  C    0.130516
    12  H   -0.109146
    13  C   -0.104546
    14  C    0.098274
    15  H   -0.135912
    16  C    0.004067
    17  C   -0.088941
    18  O   -0.271053
    19  C    0.171128
    20  C   -0.032810
    21  C   -0.025694
    22  C    0.160735
    23  C    0.080592
    24  H   -0.120479
    25  O   -0.242941
    26  C    0.085477
    27  H   -0.118281
    28  C    0.113744
    29  H   -0.108844
    30  C    0.109938
    31  H   -0.108411
    32  C    0.020910
    33  C    0.108877
    34  H   -0.102839
    35  C    0.047674
    36  H   -0.135099
    37  C    0.089352
    38  H   -0.106343
    39  C    0.089312
    40  H   -0.115736
    41  C    0.100044
    42  H   -0.117763
    43  H   -0.037348
 Sum of Mulliken charges =  -1.00000

 Dipole moment (field-independent basis, Debye):
    X=             -0.1772    Y=             -7.2208    Z=             -2.7760  Tot=              7.7380
 Quadrupole moment (field-independent basis, Debye-Ang):
   XX=           -202.3872   YY=           -174.2484   ZZ=           -159.9972
   XY=              6.7821   XZ=             -2.4615   YZ=             -5.3280

  Exact polarizability:     461.971      18.569     268.120      20.546      -8.676     130.804
 Approx polarizability:     737.327      17.164     456.575      57.904     -19.611     215.578

 Summary of Natural Population Analysis:

                                       Natural Population
                Natural  -----------------------------------------------
    Atom  No    Charge         Core      Valence    Rydberg      Total
 -----------------------------------------------------------------------
      N    1   -0.47025      1.99935     5.45153    0.01937     7.47025
      O    2   -0.67168      1.99979     6.66363    0.00825     8.67168
      C    3    0.41373      1.99889     3.54805    0.03932     5.58627
      C    4   -0.01324      1.99891     3.99339    0.02095     6.01324
      C    5   -0.55054      1.99915     4.54107    0.01032     6.55054
      H    6    0.18511      0.00000     0.81073    0.00416     0.81489
      H    7    0.17868      0.00000     0.81855    0.00277     0.82132
      H    8    0.20268      0.00000     0.79461    0.00271     0.79732
      C    9   -0.22118      1.99900     4.20331    0.01887     6.22118
      H   10    0.16862      0.00000     0.82676    0.00462     0.83138
      C   11    0.15304      1.99902     3.81925    0.02869     5.84696
      H   12    0.12800      0.00000     0.86460    0.00740     0.87200
      C   13   -0.19014      1.99888     4.17311    0.01815     6.19014
      C   14   -0.14150      1.99904     4.12450    0.01795     6.14150
      H   15    0.17608      0.00000     0.81869    0.00522     0.82392
      C   16   -0.10939      1.99885     4.09379    0.01675     6.10939
      C   17   -0.13648      1.99889     4.11697    0.02062     6.13648
      O   18   -0.62273      1.99975     6.61273    0.01026     8.62273
      C   19    0.51986      1.99904     3.43715    0.04395     5.48014
      C   20   -0.10398      1.99888     4.08781    0.01730     6.10398
      C   21   -0.09143      1.99887     4.07529    0.01726     6.09143
      C   22    0.55907      1.99905     3.39961    0.04227     5.44093
      C   23   -0.13417      1.99904     4.11709    0.01804     6.13417
      H   24    0.18114      0.00000     0.81320    0.00566     0.81886
      O   25   -0.58333      1.99974     6.57345    0.01014     8.58333
      C   26   -0.13099      1.99903     4.11427    0.01769     6.13099
      H   27    0.18272      0.00000     0.81199    0.00529     0.81728
      C   28   -0.16332      1.99911     4.15018    0.01403     6.16332
      H   29    0.16290      0.00000     0.83399    0.00311     0.83710
      C   30   -0.17322      1.99910     4.15993    0.01419     6.17322
      H   31    0.16427      0.00000     0.83259    0.00314     0.83573
      C   32   -0.01296      1.99900     3.99607    0.01789     6.01296
      C   33   -0.14124      1.99898     4.12670    0.01557     6.14124
      H   34    0.18748      0.00000     0.80670    0.00582     0.81252
      C   35   -0.18828      1.99900     4.17503    0.01425     6.18828
      H   36    0.16568      0.00000     0.83114    0.00318     0.83432
      C   37   -0.16306      1.99912     4.14981    0.01414     6.16306
      H   38    0.16353      0.00000     0.83345    0.00302     0.83647
      C   39   -0.19471      1.99911     4.18146    0.01414     6.19471
      H   40    0.16061      0.00000     0.83619    0.00319     0.83939
      C   41   -0.17788      1.99911     4.16432    0.01445     6.17788
      H   42    0.16047      0.00000     0.83627    0.00326     0.83953
      H   43    0.17201      0.00000     0.82032    0.00768     0.82799
 =======================================================================
   * Total *   -1.00000     53.97569   131.43927    0.58504   186.00000

 ******   29 imaginary frequencies (negative Signs) ******

                      1                      2                      3
                      A                      A                      A
 Frequencies --  -1470.5940             -1448.7568             -1422.5837
 Red. masses --      1.0818                 1.0801                 1.0695
 Frc consts  --      1.3784                 1.3356                 1.2752
 IR Inten    --     73.7465                54.8549                26.6709

                      4                      5                      6
                      A                      A                      A
 Frequencies --  -1392.4835             -1382.9596             -1374.1580
 Red. masses --      1.0085                 1.0486                 1.0510
 Frc consts  --      1.1521                 1.1816                 1.1692
 IR Inten    --      0.4355                16.7533                 1.1129

                      7                      8                      9
                      A                      A                      A
 Frequencies --  -1334.8326             -1324.7270             -1253.4507
 Red. masses --      1.0432                 1.0350                 1.0246
 Frc consts  --      1.0951                 1.0701                 0.9484
 IR Inten    --      0.0315                 3.2387                 1.7112

                     10                     11                     12
                      A                      A                      A
 Frequencies --  -1249.9433             -1215.8224             -1182.8469
 Red. masses --      1.0208                 1.0279                 1.0326
 Frc consts  --      0.9397                 0.8953                 0.8512
 IR Inten    --      4.6255                 0.1642                 0.0903

                     13                     14                     15
                      A                      A                      A
 Frequencies --  -1182.4499             -1019.8619              -999.9787
 Red. masses --      1.0398                 1.0551                 1.0418
 Frc consts  --      0.8566                 0.6466                 0.6138
 IR Inten    --      1.9787                11.8274                22.8200

                     16                     17                     18
                      A                      A                      A
 Frequencies --   -961.1779              -956.2817              -954.7197
 Red. masses --      1.0826                 1.0746                 1.0776
 Frc consts  --      0.5893                 0.5790                 0.5787
 IR Inten    --      8.4403                 0.1698                 4.7511

                     19                     20                     21
                      A                      A                      A
 Frequencies --   -907.3999              -903.5991              -842.5487
 Red. masses --      1.1184                 1.1368                 1.0716
 Frc consts  --      0.5426                 0.5469                 0.4482
 IR Inten    --      6.2052                 0.6375                 2.8286

                     22                     23                     24
                      A                      A                      A
 Frequencies --   -831.4685              -797.3527              -770.9191
 Red. masses --      1.1008                 1.0684                 1.0793
 Frc consts  --      0.4484                 0.4002                 0.3779
 IR Inten    --      4.0006                29.2992                12.3739

                     25                     26                     27
                      A                      A                      A
 Frequencies --   -762.1903              -704.2638              -663.4166
 Red. masses --      1.0818                 1.0433                 1.1860
 Frc consts  --      0.3703                 0.3049                 0.3075
 IR Inten    --      2.9889                29.5570                 2.5162

                     28                     29                     30
                      A                      A                      A
 Frequencies --   -348.1371              -251.6224                70.2546
 Red. masses --      1.9839                 2.5061                11.7315
 Frc consts  --      0.1417                 0.0935                 0.0341
 IR Inten    --      1.1660                 4.3121                 0.6717

                     31                     32                     33
                      A                      A                      A
 Frequencies --     79.6175               115.3542               128.3571
 Red. masses --     11.8708                 8.6622                 9.9613
 Frc consts  --      0.0443                 0.0679                 0.0967
 IR Inten    --      0.3994                 1.0648                 4.6834

                     34                     35                     36
                      A                      A                      A
 Frequencies --    142.1895               148.0384               187.1859
 Red. masses --      8.6327                 7.7823                 8.7204
 Frc consts  --      0.1028                 0.1005                 0.1800
 IR Inten    --      2.5954                 0.8758                 0.5302

                     37                     38                     39
                      A                      A                      A
 Frequencies --    209.1671               209.6231               272.1578
 Red. masses --      9.2582                10.1488                 6.8051
 Frc consts  --      0.2387                 0.2627                 0.2970
 IR Inten    --      0.2840                 2.0708                 1.9647

                     40                     41                     42
                      A                      A                      A
 Frequencies --    293.8829               323.0563               339.3791
 Red. masses --      9.2149                10.3394                 9.4493
 Frc consts  --      0.4689                 0.6358                 0.6412
 IR Inten    --      3.4264                 1.9937                 3.8409

                     43                     44                     45
                      A                      A                      A
 Frequencies --    382.1352               384.5549               398.2729
 Red. masses --      1.8416                 2.2381                 6.9853
 Frc consts  --      0.1584                 0.1950                 0.6528
 IR Inten    --     13.9028                26.4226                14.1752

                     46                     47                     48
                      A                      A                      A
 Frequencies --    402.3566               422.8549               456.1361
 Red. masses --      7.5228                 8.4434                 5.2854
 Frc consts  --      0.7176                 0.8895                 0.6479
 IR Inten    --      8.2176                 3.3365                 2.7914

                     49                     50                     51
                      A                      A                      A
 Frequencies --    460.9133               467.8223               484.7282
 Red. masses --      6.6749                 8.2172                 8.0580
 Frc consts  --      0.8355                 1.0596                 1.1155
 IR Inten    --      2.0686                 1.1090                 5.0837

                     52                     53                     54
                      A                      A                      A
 Frequencies --    510.9321               519.4873               546.4300
 Red. masses --      8.4478                11.1068                10.3495
 Frc consts  --      1.2993                 1.7660                 1.8207
 IR Inten    --      2.8578                 0.9823                 0.6095

                     55                     56                     57
                      A                      A                      A
 Frequencies --    548.5226               593.6323               607.4622
 Red. masses --     10.7275                 4.6029                 8.7274
 Frc consts  --      1.9017                 0.9557                 1.8975
 IR Inten    --      1.1460                10.4839                38.7907

                     58                     59                     60
                      A                      A                      A
 Frequencies --    615.6323               635.4493               642.4703
 Red. masses --      8.3558                 7.6764                 8.8903
 Frc consts  --      1.8659                 1.8263                 2.1621
 IR Inten    --      1.0117                17.8205                 0.4050

                     61                     62                     63
                      A                      A                      A
 Frequencies --    673.9384               697.8508               717.8149
 Red. masses --      5.5551                 5.6397                 4.4167
 Frc consts  --      1.4866                 1.6182                 1.3408
 IR Inten    --     25.7822                14.4953                 1.1093

                     64                     65                     66
                      A                      A                      A
 Frequencies --    744.6954               747.5989               760.8111
 Red. masses --      4.7318                 4.3425                10.0989
 Frc consts  --      1.5461                 1.4300                 3.4441
 IR Inten    --      2.9016                 1.4510                 3.4664

                     67                     68                     69
                      A                      A                      A
 Frequencies --    795.6865               801.6057               805.6793
 Red. masses --      4.2512                 4.1121                 3.4801
 Frc consts  --      1.5858                 1.5568                 1.3310
 IR Inten    --     21.0706                 7.3275                19.7491

                     70                     71                     72
                      A                      A                      A
 Frequencies --    818.3188               834.9338               839.9649
 Red. masses --      7.5474                10.7367                 8.3881
 Frc consts  --      2.9778                 4.4099                 3.4869
 IR Inten    --     17.6003                 8.4756                10.1063

                     73                     74                     75
                      A                      A                      A
 Frequencies --    870.7112               883.4751               886.7338
 Red. masses --      3.9511                11.2761                 4.4552
 Frc consts  --      1.7649                 5.1856                 2.0640
 IR Inten    --     12.2418                 1.2930                11.1937

                     76                     77                     78
                      A                      A                      A
 Frequencies --    923.9652               947.3809               993.7774
 Red. masses --      2.6490                 4.1365                 1.6977
 Frc consts  --      1.3324                 2.1874                 0.9879
 IR Inten    --     40.1284                 7.0356                26.0971

                     79                     80                     81
                      A                      A                      A
 Frequencies --   1033.7387              1055.6699              1075.6784
 Red. masses --      2.1930                 3.8411                 3.5671
 Frc consts  --      1.3807                 2.5221                 2.4318
 IR Inten    --     24.9217                35.7126                18.6065

                     82                     83                     84
                      A                      A                      A
 Frequencies --   1090.3211              1129.1908              1142.2405
 Red. masses --      3.4948                 7.3206                 6.0588
 Frc consts  --      2.4478                 5.4996                 4.6575
 IR Inten    --     70.1852                22.9457                12.7711

                     85                     86                     87
                      A                      A                      A
 Frequencies --   1230.3309              1243.3640              1264.7807
 Red. masses --      8.5423                 7.2885                 9.1657
 Frc consts  --      7.6185                 6.6387                 8.6387
 IR Inten    --      1.7238                 1.4983                26.3962

                     88                     89                     90
                      A                      A                      A
 Frequencies --   1316.7696              1358.0173              1376.4946
 Red. masses --      9.5688                 8.4184                10.7396
 Frc consts  --      9.7752                 9.1472                11.9891
 IR Inten    --     49.7219                 0.5782               485.0577

                     91                     92                     93
                      A                      A                      A
 Frequencies --   1429.3628              1431.1869              1447.7617
 Red. masses --      8.5508                 9.9710                10.3348
 Frc consts  --     10.2930                12.0333                12.7628
 IR Inten    --      2.9905                57.0928                83.2509

                     94                     95                     96
                      A                      A                      A
 Frequencies --   1453.8529              1457.4218              1477.3841
 Red. masses --     10.4700                 9.4289                10.8074
 Frc consts  --     13.0388                11.8000                13.8982
 IR Inten    --     17.7136                 4.9742                91.3998

                     97                     98                     99
                      A                      A                      A
 Frequencies --   1479.8196              1517.9412              1610.5140
 Red. masses --     10.1771                10.6718                10.4740
 Frc consts  --     13.1308                14.4877                16.0063
 IR Inten    --     62.0951                87.0185               228.0169

                    100                    101                    102
                      A                      A                      A
 Frequencies --   1636.0287              1642.0106              1665.4603
 Red. masses --     11.1837                10.6175                11.0684
 Frc consts  --     17.6367                16.8664                18.0885
 IR Inten    --     49.6884                 8.4340                54.2908

                    103                    104                    105
                      A                      A                      A
 Frequencies --   1687.9158              1691.4900              1705.6907
 Red. masses --     10.0815                10.7287                10.4587
 Frc consts  --     16.9230                18.0857                17.9278
 IR Inten    --     34.0973                 0.9452               337.5479

                    106                    107                    108
                      A                      A                      A
 Frequencies --   1770.5558              1781.5966              4324.9089
 Red. masses --     12.7801                12.9521                 1.0860
 Frc consts  --     23.6049                24.2219                11.9680
 IR Inten    --    385.8311               190.9523                24.4368

                    109                    110                    111
                      A                      A                      A
 Frequencies --   4473.6675              4678.4573              4685.8141
 Red. masses --      1.0324                 1.1064                 1.1070
 Frc consts  --     12.1736                14.2683                14.3210
 IR Inten    --     13.4606                 5.9045                 2.8831

                    112                    113                    114
                      A                      A                      A
 Frequencies --   5014.4528              5016.3885              5024.6815
 Red. masses --      1.0870                 1.0871                 1.0872
 Frc consts  --     16.1040                16.1176                16.1731
 IR Inten    --      2.0691                 7.8291                 2.0021

                    115                    116                    117
                      A                      A                      A
 Frequencies --   5030.2316              5031.0424              5036.5060
 Red. masses --      1.0893                 1.0875                 1.0901
 Frc consts  --     16.2399                16.2175                16.2917
 IR Inten    --      5.5966                 0.0034                 0.6285

                    118                    119                    120
                      A                      A                      A
 Frequencies --   5039.0402              5040.0736              5043.1108
 Red. masses --      1.0888                 1.0887                 1.0906
 Frc consts  --     16.2892                16.2937                16.3423
 IR Inten    --      2.7212                 1.8062                 1.6327

                    121                    122                    123
                      A                      A                      A
 Frequencies --   5048.1865              5049.8755              5054.5640
 Red. masses --      1.0908                 1.0900                 1.0912
 Frc consts  --     16.3782                16.3773                16.4263
 IR Inten    --      4.6010                 2.9661                 3.8236

 - Thermochemistry -
 -------------------
 Temperature   298.150 Kelvin.  Pressure   1.00000 Atm.
 Atom     1 has atomic number  7 and mass  14.00307

 Molecular mass:   354.11302 amu.
 Principal axes and moments of inertia in atomic units:
                           1         2         3
     Eigenvalues --  4177.52785********************
           X            1.00000  -0.00081   0.00079
           Y            0.00082   0.99991  -0.01319
           Z           -0.00078   0.01319   0.99991
 This molecule is an asymmetric top.
 Rotational symmetry number  1.
 Warning -- assumption of classical behavior for rotation
           may cause significant error
 Rotational temperatures (Kelvin)      0.02073     0.00437     0.00377
 Rotational constants (GHZ):           0.43201     0.09106     0.07850
   29 imaginary frequencies ignored.
 Zero-point vibrational energy     874090.9 (Joules/Mol)
                                  208.91274 (Kcal/Mol)
 Warning -- explicit consideration of  29 degrees of freedom as
           vibrations may cause significant error
 Vibrational temperatures:    101.08   114.55   165.97   184.68   204.58
          (Kelvin)            212.99   269.32   300.94   301.60   391.57
                              422.83   464.81   488.29   549.81   553.29
                              573.03   578.90   608.39   656.28   663.15
                              673.09   697.42   735.12   747.43   786.19
                              789.20   854.10   874.00   885.76   914.27
                              924.37   969.65  1004.05  1032.78  1071.45
                             1075.63  1094.64  1144.82  1153.33  1159.19
                             1177.38  1201.28  1208.52  1252.76  1271.12
                             1275.81  1329.38  1363.07  1429.82  1487.32
                             1518.87  1547.66  1568.73  1624.65  1643.43
                             1770.17  1788.92  1819.74  1894.54  1953.88
                             1980.47  2056.53  2059.16  2083.01  2091.77
                             2096.90  2125.63  2129.13  2183.98  2317.17
                             2353.88  2362.49  2396.23  2428.53  2433.68
                             2454.11  2547.43  2563.32  6222.58  6436.61
                             6731.26  6741.84  7214.68  7217.46  7229.40
                             7237.38  7238.55  7246.41  7250.05  7251.54
                             7255.91  7263.21  7265.64  7272.39

 Zero-point correction=                           0.332924 (Hartree/Particle)
 Thermal correction to Energy=                    0.349122
 Thermal correction to Enthalpy=                  0.350067
 Thermal correction to Gibbs Free Energy=         0.289441
 Sum of electronic and zero-point Energies=          -1163.761931
 Sum of electronic and thermal Energies=             -1163.745733
 Sum of electronic and thermal Enthalpies=           -1163.744788
 Sum of electronic and thermal Free Energies=        -1163.805414

                     E (Thermal)             CV                S
                      KCal/Mol        Cal/Mol-Kelvin    Cal/Mol-Kelvin
 Total                  219.078             67.096            127.598
 Electronic               0.000              0.000              0.000
 Translational            0.889              2.981             43.487
 Rotational               0.889              2.981             35.897
 Vibrational            217.300             61.134             48.214
 Vibration     1          0.598              1.968              4.146
 Vibration     2          0.600              1.963              3.900
 Vibration     3          0.608              1.937              3.177
 Vibration     4          0.611              1.925              2.971
 Vibration     5          0.616              1.911              2.774
 Vibration     6          0.617              1.905              2.697
 Vibration     7          0.632              1.857              2.256
 Vibration     8          0.642              1.827              2.051
 Vibration     9          0.642              1.826              2.047
 Vibration    10          0.675              1.725              1.582
 Vibration    11          0.689              1.685              1.452
 Vibration    12          0.708              1.629              1.295
 Vibration    13          0.719              1.597              1.215
 Vibration    14          0.752              1.508              1.031
 Vibration    15          0.753              1.503              1.021
 Vibration    16          0.765              1.474              0.969
 Vibration    17          0.768              1.465              0.954
 Vibration    18          0.785              1.421              0.882
 Vibration    19          0.814              1.347              0.777
 Vibration    20          0.819              1.337              0.763
 Vibration    21          0.825              1.321              0.744
 Vibration    22          0.841              1.284              0.697
 Vibration    23          0.866              1.226              0.631
 Vibration    24          0.874              1.207              0.611
 Vibration    25          0.902              1.148              0.552
 Vibration    26          0.904              1.143              0.547
 Vibration    27          0.951              1.045              0.461
 Vibration    28          0.966              1.016              0.437
 Vibration    29          0.975              0.999              0.424

 Normal termination of Gaussian 16 at Mon Mar  6 12:03:45 2023.
