 Gaussian 16, Revision C.01,
 Gaussian 16:  ES64L-G16RevC.01  3-Jul-2019

 ----------------------------------------------------------------------
 #p pop=(regular,nbo,savenbos) freq=noraman def2svp empiricaldispersion
 =gd3bj output=wfx pbe1pbe
 ----------------------------------------------------------------------

 ----------------------------------------
 KOGFOB_Complex_7_Ligand_2_ON_Cu_oriented
 ----------------------------------------
 Symbolic Z-matrix:
 Charge = -1 Multiplicity = 1

                         Standard orientation:
 ---------------------------------------------------------------------
 Center     Atomic      Atomic             Coordinates (Angstroms)
 Number     Number       Type             X           Y           Z
 ---------------------------------------------------------------------
      1          8           0       -2.312274   -0.847503   -0.151988
      2          8           0       -2.008235    1.332759   -0.303162
      3          8           0        1.853210   -0.397871   -0.453953
      4          7           0        0.140331   -1.395604    0.693947
      5          6           0       -1.617297    0.210133   -0.019347
      6          6           0       -0.221147    0.041846    0.570573
      7          6           0        0.887743    0.653698   -0.322620
      8          6           0        1.566359    1.862098    0.265024
      9          6           0        1.125741   -1.600589   -0.374323
     10          1           0        0.488798   -1.535081    1.479889
     11          1           0       -0.217739    0.480238    1.473911
     12          1           0        0.577852    0.821259   -1.192258
     13          1           0        0.855773    2.510126    0.508949
     14          1           0        2.294485    2.174684   -0.356184
     15          1           0        1.962026    1.661944    1.105865
     16          1           0        0.564571   -1.740994   -1.268236
     17          1           0        1.781917   -2.305144   -0.052582
 ---------------------------------------------------------------------

 SCF Done:  E(RPBE1PBE) =  -474.827680675     A.U. after   14 cycles

 The electronic state is 1-A.
 Alpha  occ. eigenvalues --  -19.05992 -18.92700 -18.90995 -14.20199 -10.14565
 Alpha  occ. eigenvalues --  -10.11298 -10.08713 -10.07436 -10.06184  -0.92596
 Alpha  occ. eigenvalues --   -0.82417  -0.76134  -0.71440  -0.67212  -0.57989
 Alpha  occ. eigenvalues --   -0.51781  -0.48191  -0.40636  -0.37505  -0.35484
 Alpha  occ. eigenvalues --   -0.32991  -0.30955  -0.29016  -0.26677  -0.25494
 Alpha  occ. eigenvalues --   -0.23509  -0.22616  -0.20805  -0.18006  -0.16361
 Alpha  occ. eigenvalues --   -0.13393  -0.09681  -0.03356  -0.03291  -0.00831
 Alpha virt. eigenvalues --    0.20503   0.22736   0.24736   0.26266   0.27947
 Alpha virt. eigenvalues --    0.28750   0.29624   0.30692   0.31714   0.32749
 Alpha virt. eigenvalues --    0.34252   0.36737   0.39351   0.42126   0.46779

 Mulliken charges:
               1
     1  O   -0.448784
     2  O   -0.413710
     3  O   -0.472990
     4  N   -0.201175
     5  C    0.125994
     6  C   -0.078269
     7  C    0.183735
     8  C    0.190343
     9  C    0.362640
    10  H    0.017587
    11  H   -0.044285
    12  H   -0.075517
    13  H   -0.010208
    14  H   -0.023158
    15  H   -0.068022
    16  H   -0.007871
    17  H   -0.036309
 Sum of Mulliken charges =  -1.00000

 Dipole moment (field-independent basis, Debye):
    X=              8.4404    Y=             -0.2570    Z=              1.8628  Tot=              8.6473
 Quadrupole moment (field-independent basis, Debye-Ang):
   XX=            -83.8114   YY=            -62.6606   ZZ=            -51.8428
   XY=             -0.5123   XZ=             -1.2192   YZ=              0.9071

  Exact polarizability:      63.801       1.733      69.945       0.469       1.552      49.914
 Approx polarizability:      83.446       3.795      99.520      -0.233       0.451      70.120

 Summary of Natural Population Analysis:

                                       Natural Population
                Natural  -----------------------------------------------
    Atom  No    Charge         Core      Valence    Rydberg      Total
 -----------------------------------------------------------------------
      O    1   -0.78844      1.99977     6.77989    0.00878     8.78844
      O    2   -0.78941      1.99973     6.77900    0.01068     8.78941
      O    3   -0.65573      1.99974     6.64572    0.01027     8.65573
      N    4   -0.65072      1.99934     5.63132    0.02006     7.65072
      C    5    0.77589      1.99941     3.14883    0.07588     5.22411
      C    6   -0.15812      1.99897     4.13384    0.02531     6.15812
      C    7    0.18424      1.99891     3.79281    0.02404     5.81576
      C    8   -0.58116      1.99912     4.57304    0.00899     6.58116
      C    9    0.14623      1.99931     3.82974    0.02471     5.85377
      H   10    0.30268      0.00000     0.69030    0.00702     0.69732
      H   11    0.18352      0.00000     0.81140    0.00509     0.81648
      H   12    0.13618      0.00000     0.85592    0.00790     0.86382
      H   13    0.20462      0.00000     0.78887    0.00651     0.79538
      H   14    0.18656      0.00000     0.80959    0.00386     0.81344
      H   15    0.17477      0.00000     0.82032    0.00491     0.82523
      H   16    0.16685      0.00000     0.82583    0.00732     0.83315
      H   17    0.16204      0.00000     0.83510    0.00286     0.83796
 =======================================================================
   * Total *   -1.00000     17.99431    51.75151    0.25418    70.00000

 ******    9 imaginary frequencies (negative Signs) ******

                      1                      2                      3
                      A                      A                      A
 Frequencies --  -1681.6070             -1267.9991             -1064.6449
 Red. masses --      1.0853                 1.0217                 1.1339
 Frc consts  --      1.8082                 0.9679                 0.7572
 IR Inten    --    112.9961                 1.0582                 6.0675

                      4                      5                      6
                      A                      A                      A
 Frequencies --  -1047.7729              -813.5564              -698.2166
 Red. masses --      1.0707                 1.1302                 1.2474
 Frc consts  --      0.6926                 0.4407                 0.3583
 IR Inten    --      0.4795                 4.1541                 7.3128

                      7                      8                      9
                      A                      A                      A
 Frequencies --   -645.3367              -357.7100              -159.2516
 Red. masses --      1.1641                 1.4695                 6.8596
 Frc consts  --      0.2856                 0.1108                 0.1025
 IR Inten    --      4.0987                 2.1195                 0.0482

                     10                     11                     12
                      A                      A                      A
 Frequencies --    227.8374               240.8217               393.2674
 Red. masses --      6.0572                 2.2364                 3.9035
 Frc consts  --      0.1853                 0.0764                 0.3557
 IR Inten    --      6.1080                 1.2188                17.4323

                     13                     14                     15
                      A                      A                      A
 Frequencies --    463.4012               513.3187               542.8519
 Red. masses --      4.4293                 3.6702                 2.7885
 Frc consts  --      0.5604                 0.5698                 0.4842
 IR Inten    --     12.2945                19.9927                 2.1941

                     16                     17                     18
                      A                      A                      A
 Frequencies --    627.4802               664.8819               736.4115
 Red. masses --      4.0049                 1.7464                 4.8454
 Frc consts  --      0.9291                 0.4549                 1.5482
 IR Inten    --      0.8615                17.8392                 1.8124

                     19                     20                     21
                      A                      A                      A
 Frequencies --    779.1124               811.6403               828.8785
 Red. masses --      1.4616                 4.8174                 2.1520
 Frc consts  --      0.5227                 1.8698                 0.8711
 IR Inten    --     26.1841                28.9018                22.9492

                     22                     23                     24
                      A                      A                      A
 Frequencies --    896.6501               929.2471               971.9761
 Red. masses --      2.1759                 3.4025                 2.6481
 Frc consts  --      1.0307                 1.7311                 1.4740
 IR Inten    --      0.6278                 8.5990                22.0960

                     25                     26                     27
                      A                      A                      A
 Frequencies --   1035.1237              1055.9550              1067.8265
 Red. masses --      3.1376                 2.8516                 5.2005
 Frc consts  --      1.9807                 1.8734                 3.4938
 IR Inten    --     10.8305                59.6424                34.5270

                     28                     29                     30
                      A                      A                      A
 Frequencies --   1085.9305              1134.5967              1152.5114
 Red. masses --      2.9617                 1.6798                 3.9690
 Frc consts  --      2.0578                 1.2741                 3.1061
 IR Inten    --     15.6528                29.9684                71.9328

                     31                     32                     33
                      A                      A                      A
 Frequencies --   1177.7772              1193.3745              1226.9761
 Red. masses --      1.6541                 1.9363                 2.0950
 Frc consts  --      1.3519                 1.6247                 1.8583
 IR Inten    --      4.6434                26.3899                11.1784

                     34                     35                     36
                      A                      A                      A
 Frequencies --   1232.5314              1332.8632              1448.4659
 Red. masses --      1.8109                 1.1690                12.6806
 Frc consts  --      1.6209                 1.2236                15.6750
 IR Inten    --      7.2901                 4.5632               236.0635

                     37                     38                     39
                      A                      A                      A
 Frequencies --   1844.9165              3416.8374              3983.4021
 Red. masses --     12.9087                 1.0711                 1.0968
 Frc consts  --     25.8873                 7.3677                10.2541
 IR Inten    --    432.5970                58.5920                33.5309

                     40                     41                     42
                      A                      A                      A
 Frequencies --   4008.9455              4080.4514              4258.2791
 Red. masses --      1.0518                 1.0877                 1.1028
 Frc consts  --      9.9598                10.6705                11.7821
 IR Inten    --     24.4141                18.7451                 2.5748

                     43                     44                     45
                      A                      A                      A
 Frequencies --   4734.0927              4899.6764              5651.0143
 Red. masses --      1.0877                 1.0879                 1.0760
 Frc consts  --     14.3626                15.3875                20.2447
 IR Inten    --      8.8628                 9.0649                 3.1428

 - Thermochemistry -
 -------------------
 Temperature   298.150 Kelvin.  Pressure   1.00000 Atm.
 Atom     1 has atomic number  8 and mass  15.99491

 Molecular mass:   130.05042 amu.
 Principal axes and moments of inertia in atomic units:
                           1         2         3
     Eigenvalues --   720.369251191.447561707.68159
           X            0.99928   0.03793   0.00314
           Y           -0.03797   0.99917   0.01489
           Z           -0.00257  -0.01500   0.99988
 This molecule is an asymmetric top.
 Rotational symmetry number  1.
 Warning -- assumption of classical behavior for rotation
           may cause significant error
 Rotational temperatures (Kelvin)      0.12024     0.07270     0.05072
 Rotational constants (GHZ):           2.50530     1.51475     1.05684
    9 imaginary frequencies ignored.
 Zero-point vibrational energy     362763.5 (Joules/Mol)
                                   86.70256 (Kcal/Mol)
 Warning -- explicit consideration of   6 degrees of freedom as
           vibrations may cause significant error
 Vibrational temperatures:    327.81   346.49   565.82   666.73   738.55
          (Kelvin)            781.04   902.80   956.62  1059.53  1120.97
                             1167.77  1192.57  1290.08  1336.98  1398.46
                             1489.31  1519.28  1536.36  1562.41  1632.43
                             1658.21  1694.56  1717.00  1765.35  1773.34
                             1917.69  2084.02  2654.42  4916.07  5731.23
                             5767.98  5870.86  6126.71  6811.30  7049.54
                             8130.55

 Zero-point correction=                           0.138169 (Hartree/Particle)
 Thermal correction to Energy=                    0.143984
 Thermal correction to Enthalpy=                  0.144928
 Thermal correction to Gibbs Free Energy=         0.107633
 Sum of electronic and zero-point Energies=           -474.689511
 Sum of electronic and thermal Energies=              -474.683697
 Sum of electronic and thermal Enthalpies=            -474.682753
 Sum of electronic and thermal Free Energies=         -474.720048

                     E (Thermal)             CV                S
                      KCal/Mol        Cal/Mol-Kelvin    Cal/Mol-Kelvin
 Total                   90.351             23.456             78.495
 Electronic               0.000              0.000              0.000
 Translational            0.889              2.981             40.501
 Rotational               0.889              2.981             28.773
 Vibrational             88.574             17.494              9.220
 Vibration     1          0.651              1.799              1.896
 Vibration     2          0.658              1.778              1.797
 Vibration     3          0.760              1.485              0.988
 Vibration     4          0.821              1.331              0.756
 Vibration     5          0.868              1.220              0.626
 Vibration     6          0.898              1.155              0.559

 Normal termination of Gaussian 16 at Mon Mar  6 10:28:29 2023.
