 Gaussian 16, Revision C.01,
 Gaussian 16:  ES64L-G16RevC.01  3-Jul-2019

 ----------------------------------------------------------------------
 #p pop=(regular,nbo,savenbos) freq=noraman def2svp empiricaldispersion
 =gd3bj output=wfx pbe1pbe
 ----------------------------------------------------------------------

 ----------------------------------------
 KOGTOP_Complex_0_Ligand_1_ON_Cu_oriented
 ----------------------------------------
 Symbolic Z-matrix:
 Charge = -1 Multiplicity = 1

                         Standard orientation:
 ---------------------------------------------------------------------
 Center     Atomic      Atomic             Coordinates (Angstroms)
 Number     Number       Type             X           Y           Z
 ---------------------------------------------------------------------
      1          8           0       -1.874978    0.635514    0.746907
      2          7           0        0.357701    1.598979   -0.316747
      3          6           0       -1.313423   -0.165822   -0.089023
      4          6           0        0.176406    0.121196   -0.451684
      5          6           0        1.146222   -0.444994    0.554413
      6          1           0        0.361854   -0.303612   -1.430546
      7          1           0        0.816101   -1.417941    0.862235
      8          1           0        1.176790    0.206046    1.419446
      9          8           0        2.409483   -0.522009    0.003967
     10          1           0        3.378718   -0.965505    0.024337
     11          8           0       -1.764651   -1.320982   -0.436496
     12          1           0        0.188693    2.074383   -1.272514
     13          1           0        1.359875    1.811306    0.017006
 ---------------------------------------------------------------------

 SCF Done:  E(RPBE1PBE) =  -397.582653791     A.U. after   17 cycles

 The electronic state is 1-A.
 Alpha  occ. eigenvalues --  -19.05532 -18.91848 -18.91580 -14.21002 -10.12477
 Alpha  occ. eigenvalues --  -10.09000 -10.07305  -0.87226  -0.79137  -0.71002
 Alpha  occ. eigenvalues --   -0.69626  -0.57472  -0.47235  -0.38923  -0.35026
 Alpha  occ. eigenvalues --   -0.31930  -0.28152  -0.25936  -0.23839  -0.20930
 Alpha  occ. eigenvalues --   -0.17072  -0.16372  -0.14258  -0.13173  -0.07730
 Alpha  occ. eigenvalues --   -0.02550  -0.02220  -0.00505
 Alpha virt. eigenvalues --    0.14668   0.21672   0.25450   0.26023   0.27943
 Alpha virt. eigenvalues --    0.30982   0.31298   0.36981   0.39729   0.43867
 Alpha virt. eigenvalues --    0.45763   0.56841   0.57688   0.59762   0.64664

 Mulliken charges:
               1
     1  O   -0.452617
     2  N   -0.272621
     3  C    0.143471
     4  C   -0.044818
     5  C    0.260503
     6  H   -0.022578
     7  H   -0.010026
     8  H   -0.011526
     9  O   -0.478857
    10  H    0.216444
    11  O   -0.486997
    12  H    0.081629
    13  H    0.077995
 Sum of Mulliken charges =  -1.00000

 Dipole moment (field-independent basis, Debye):
    X=              9.0602    Y=              0.4744    Z=             -1.0066  Tot=              9.1283
 Quadrupole moment (field-independent basis, Debye-Ang):
   XX=            -55.6065   YY=            -49.9402   ZZ=            -43.9518
   XY=             -4.8551   XZ=              3.4703   YZ=             -5.3762

  Exact polarizability:      64.316      -1.931      53.007       0.177       1.731      43.717
 Approx polarizability:      80.577      -3.090      78.250      -1.570      10.801      63.532

 Summary of Natural Population Analysis:

                                       Natural Population
                Natural  -----------------------------------------------
    Atom  No    Charge         Core      Valence    Rydberg      Total
 -----------------------------------------------------------------------
      O    1   -0.76788      1.99976     6.75968    0.00844     8.76788
      N    2   -0.88803      1.99952     5.87439    0.01412     7.88803
      C    3    0.76826      1.99940     3.16137    0.07096     5.23174
      C    4   -0.15615      1.99898     4.13400    0.02318     6.15615
      C    5   -0.01916      1.99900     4.00305    0.01711     6.01916
      H    6    0.19948      0.00000     0.79224    0.00827     0.80052
      H    7    0.17880      0.00000     0.81479    0.00642     0.82120
      H    8    0.17234      0.00000     0.82140    0.00626     0.82766
      O    9   -0.85997      1.99964     6.85135    0.00898     8.85997
      H   10    0.49838      0.00000     0.49429    0.00733     0.50162
      O   11   -0.80417      1.99977     6.79599    0.00842     8.80417
      H   12    0.34149      0.00000     0.65203    0.00648     0.65851
      H   13    0.33661      0.00000     0.65506    0.00833     0.66339
 =======================================================================
   * Total *   -1.00000     13.99608    41.80965    0.19427    56.00000

 ******    1 imaginary frequencies (negative Signs) ******

                      1                      2                      3
                      A                      A                      A
 Frequencies --   -384.8409               106.8958               158.6931
 Red. masses --      2.9149                 7.9339                 5.0666
 Frc consts  --      0.2544                 0.0534                 0.0752
 IR Inten    --     40.8000                 1.0786                10.7560

                      4                      5                      6
                      A                      A                      A
 Frequencies --    291.9511               373.1428               431.9166
 Red. masses --      5.3640                 7.7692                 3.2102
 Frc consts  --      0.2694                 0.6374                 0.3528
 IR Inten    --      2.5560                 3.6503                 5.2794

                      7                      8                      9
                      A                      A                      A
 Frequencies --    518.2518               656.4790               728.5559
 Red. masses --      2.8718                 1.3071                 1.2749
 Frc consts  --      0.4544                 0.3319                 0.3987
 IR Inten    --     19.2118                74.9123                26.2095

                     10                     11                     12
                      A                      A                      A
 Frequencies --    750.4887               810.3758               865.8388
 Red. masses --      2.5047                 7.8918                 2.3039
 Frc consts  --      0.8312                 3.0535                 1.0176
 IR Inten    --     26.4516                15.1821                24.9864

                     13                     14                     15
                      A                      A                      A
 Frequencies --    913.8736              1016.0980              1029.4021
 Red. masses --      3.9694                 1.1708                 1.9370
 Frc consts  --      1.9532                 0.7122                 1.2094
 IR Inten    --     10.4977               108.2631                18.3737

                     16                     17                     18
                      A                      A                      A
 Frequencies --   1045.0202              1101.6546              1137.7258
 Red. masses --      1.1147                 2.5142                 1.7771
 Frc consts  --      0.7172                 1.7978                 1.3553
 IR Inten    --     82.4615                14.7941                51.8275

                     19                     20                     21
                      A                      A                      A
 Frequencies --   1171.4266              1206.8447              1257.2319
 Red. masses --      2.4684                 1.4712                 1.3753
 Frc consts  --      1.9957                 1.2625                 1.2808
 IR Inten    --    146.7137                99.8967                46.8738

                     22                     23                     24
                      A                      A                      A
 Frequencies --   1294.6577              1339.7435              1401.1219
 Red. masses --      2.1591                 2.4983                 1.3945
 Frc consts  --      2.1322                 2.6420                 1.6130
 IR Inten    --    171.8834                45.2542                13.8091

                     25                     26                     27
                      A                      A                      A
 Frequencies --   1454.8732              1550.9698              1672.1650
 Red. masses --      1.0756                10.0112                 1.0990
 Frc consts  --      1.3414                14.1887                 1.8105
 IR Inten    --     15.2595               364.0922                13.8514

                     28                     29                     30
                      A                      A                      A
 Frequencies --   2566.5500              2840.7770              2957.6427
 Red. masses --      1.0848                 1.0475                 1.0956
 Frc consts  --      4.2101                 4.9804                 5.6466
 IR Inten    --      5.9507                39.8719                 8.5357

                     31                     32                     33
                      A                      A                      A
 Frequencies --   3232.2315              3255.3259              3363.5937
 Red. masses --      1.0683                 1.0857                 1.0972
 Frc consts  --      6.5761                 6.7786                 7.3139
 IR Inten    --     45.4590                62.5797                51.7650

 - Thermochemistry -
 -------------------
 Temperature   298.150 Kelvin.  Pressure   1.00000 Atm.
 Atom     1 has atomic number  8 and mass  15.99491

 Molecular mass:   104.03477 amu.
 Principal axes and moments of inertia in atomic units:
                           1         2         3
     Eigenvalues --   407.81210 994.791521217.52716
           X            0.99994  -0.00756   0.00769
           Y            0.00793   0.99872  -0.04995
           Z           -0.00730   0.05000   0.99872
 This molecule is an asymmetric top.
 Rotational symmetry number  1.
 Rotational temperatures (Kelvin)      0.21239     0.08707     0.07114
 Rotational constants (GHZ):           4.42542     1.81419     1.48230
    1 imaginary frequencies ignored.
 Zero-point vibrational energy     254215.5 (Joules/Mol)
                                   60.75897 (Kcal/Mol)
 Warning -- explicit consideration of   6 degrees of freedom as
           vibrations may cause significant error
 Vibrational temperatures:    153.80   228.32   420.05   536.87   621.43
          (Kelvin)            745.65   944.53  1048.23  1079.79  1165.95
                             1245.75  1314.86  1461.94  1481.08  1503.55
                             1585.04  1636.93  1685.42  1736.38  1808.88
                             1862.72  1927.59  2015.90  2093.24  2231.50
                             2405.87  3692.69  4087.24  4255.39  4650.46
                             4683.69  4839.46

 Zero-point correction=                           0.096826 (Hartree/Particle)
 Thermal correction to Energy=                    0.103014
 Thermal correction to Enthalpy=                  0.103958
 Thermal correction to Gibbs Free Energy=         0.066245
 Sum of electronic and zero-point Energies=           -397.485828
 Sum of electronic and thermal Energies=              -397.479640
 Sum of electronic and thermal Enthalpies=            -397.478695
 Sum of electronic and thermal Free Energies=         -397.516409

                     E (Thermal)             CV                S
                      KCal/Mol        Cal/Mol-Kelvin    Cal/Mol-Kelvin
 Total                   64.642             22.452             79.375
 Electronic               0.000              0.000              0.000
 Translational            0.889              2.981             39.836
 Rotational               0.889              2.981             27.693
 Vibrational             62.865             16.491             11.846
 Vibration     1          0.606              1.944              3.325
 Vibration     2          0.621              1.893              2.565
 Vibration     3          0.687              1.689              1.463
 Vibration     4          0.745              1.527              1.067
 Vibration     5          0.793              1.401              0.852
 Vibration     6          0.873              1.210              0.614

 Normal termination of Gaussian 16 at Mon Mar  6 10:24:45 2023.
