 Gaussian 16, Revision C.01,
 Gaussian 16:  ES64L-G16RevC.01  3-Jul-2019

 ----------------------------------------------------------------------
 #p pop=(regular,nbo,savenbos) freq=noraman def2svp empiricaldispersion
 =gd3bj output=wfx pbe1pbe
 ----------------------------------------------------------------------

 ----------------------------------------
 KOKBUH_Complex_1_Ligand_0_ON_Cu_oriented
 ----------------------------------------
 Symbolic Z-matrix:
 Charge = -1 Multiplicity = 1

                         Standard orientation:
 ---------------------------------------------------------------------
 Center     Atomic      Atomic             Coordinates (Angstroms)
 Number     Number       Type             X           Y           Z
 ---------------------------------------------------------------------
      1          8           0       -1.380008    2.985535   -0.168193
      2          7           0        0.543710    0.973391   -0.277304
      3          6           0       -1.875231    0.631526   -0.106788
      4          6           0       -2.230206    1.988796   -0.077104
      5          6           0       -3.594808    2.335950    0.097403
      6          6           0       -4.263947    0.018099    0.122754
      7          6           0       -2.900200   -0.379753   -0.056609
      8          6           0       -0.506282    0.226603   -0.085192
      9          6           0        1.909566    0.353567   -0.110798
     10          6           0        2.249300   -0.525306   -1.343788
     11          6           0        3.691532   -1.061717   -1.177009
     12          6           0        4.678097    0.076186   -1.074480
     13          6           0        4.333062    0.937947    0.121109
     14          6           0        4.397091    0.099073    1.419173
     15          6           0        3.434536   -1.054032    1.305365
     16          6           0        2.016373   -0.522370    1.143291
     17          6           0        2.926529    1.481074   -0.012602
     18          6           0        3.782692   -1.904777    0.102967
     19          1           0       -3.831154    3.258367    0.143190
     20          1           0       -0.339135   -0.693822    0.087286
     21          1           0        2.185333   -0.004635   -2.139014
     22          1           0        1.639208   -1.255705   -1.398815
     23          1           0        3.914040   -1.600218   -1.923771
     24          1           0        4.643594    0.591605   -1.867078
     25          1           0        5.551871   -0.285720   -0.967505
     26          1           0        4.954344    1.664480    0.177547
     27          1           0        4.159092    0.636753    2.165022
     28          1           0        5.280437   -0.236551    1.542272
     29          1           0        3.482817   -1.592042    2.085997
     30          1           0        1.413966   -1.253102    1.059949
     31          1           0        1.788163   -0.006565    1.904231
     32          1           0        2.728169    2.017549    0.749452
     33          1           0        2.872080    2.019196   -0.794600
     34          1           0        4.668452   -2.230302    0.200223
     35          1           0        3.175890   -2.628070    0.043815
     36          6           0       -5.280425   -0.971068    0.172147
     37          6           0       -4.963107   -2.290269    0.048499
     38          1           0       -6.185604   -0.710346    0.308026
     39          1           0       -5.647406   -2.950452    0.088222
     40          6           0       -4.567233    1.401576    0.200480
     41          1           0       -5.476382    1.669214    0.316657
     42          6           0       -3.663326   -2.671624   -0.146555
     43          6           0       -2.659839   -1.746819   -0.195862
     44          1           0       -3.463022   -3.594560   -0.243869
     45          1           0       -1.765710   -2.049065   -0.328984
 ---------------------------------------------------------------------

 SCF Done:  E(RPBE1PBE) =  -941.389624426     A.U. after   18 cycles

 The electronic state is 1-A.
 Alpha  occ. eigenvalues --  -18.96396 -14.20854 -10.13109 -10.11271 -10.10994
 Alpha  occ. eigenvalues --  -10.10978 -10.10885 -10.10043 -10.09759 -10.09613
 Alpha  occ. eigenvalues --  -10.09464 -10.09448 -10.09347 -10.09194 -10.08756
 Alpha  occ. eigenvalues --  -10.08317 -10.08160 -10.08150 -10.08132 -10.07793
 Alpha  occ. eigenvalues --  -10.06965 -10.06475 -10.05930  -0.81049  -0.79871
 Alpha  occ. eigenvalues --   -0.76201  -0.75472  -0.71093  -0.70490  -0.69551
 Alpha  occ. eigenvalues --   -0.67974  -0.65562  -0.61864  -0.61271  -0.61034
 Alpha  occ. eigenvalues --   -0.59116  -0.53186  -0.52725  -0.52170  -0.51654
 Alpha  occ. eigenvalues --   -0.48912  -0.48332  -0.46068  -0.44398  -0.41801
 Alpha  occ. eigenvalues --   -0.40066  -0.39868  -0.39321  -0.38988  -0.38332
 Alpha  occ. eigenvalues --   -0.35715  -0.34872  -0.34562  -0.34018  -0.33746
 Alpha  occ. eigenvalues --   -0.32792  -0.32097  -0.31714  -0.30910  -0.29918
 Alpha  occ. eigenvalues --   -0.29569  -0.27577  -0.27070  -0.25821  -0.25143
 Alpha  occ. eigenvalues --   -0.25085  -0.24355  -0.23958  -0.23826  -0.22598
 Alpha  occ. eigenvalues --   -0.21396  -0.20711  -0.20336  -0.19855  -0.19047
 Alpha  occ. eigenvalues --   -0.17935  -0.15187  -0.14013  -0.09729  -0.09442
 Alpha  occ. eigenvalues --   -0.04324  -0.03304
 Alpha virt. eigenvalues --    0.09859   0.13281   0.15546   0.15910   0.19125
 Alpha virt. eigenvalues --    0.19948   0.20428   0.20748   0.21116   0.21438
 Alpha virt. eigenvalues --    0.22630   0.22880   0.23442   0.24600   0.24929

 Mulliken charges:
               1
     1  O   -0.416272
     2  N   -0.191275
     3  C   -0.054305
     4  C    0.123107
     5  C    0.043677
     6  C   -0.011935
     7  C    0.074714
     8  C    0.083792
     9  C   -0.367081
    10  C    0.352320
    11  C   -0.190381
    12  C    0.308675
    13  C   -0.198985
    14  C    0.289212
    15  C   -0.162931
    16  C    0.331554
    17  C    0.401811
    18  C    0.289607
    19  H   -0.131206
    20  H   -0.125733
    21  H   -0.061921
    22  H   -0.071763
    23  H   -0.080120
    24  H   -0.069530
    25  H   -0.079516
    26  H   -0.073776
    27  H   -0.066615
    28  H   -0.079848
    29  H   -0.080741
    30  H   -0.066902
    31  H   -0.064331
    32  H   -0.067956
    33  H   -0.070695
    34  H   -0.080563
    35  H   -0.071448
    36  C    0.052712
    37  C    0.053928
    38  H   -0.131070
    39  H   -0.119981
    40  C    0.065877
    41  H   -0.132946
    42  C    0.086020
    43  C    0.012509
    44  H   -0.119652
    45  H   -0.130038
 Sum of Mulliken charges =  -1.00000

 Dipole moment (field-independent basis, Debye):
    X=              7.1535    Y=             -6.3821    Z=              0.8131  Tot=              9.6211
 Quadrupole moment (field-independent basis, Debye-Ang):
   XX=           -170.7106   YY=           -161.8682   ZZ=           -140.6468
   XY=              1.8589   XZ=             -0.9457   YZ=              2.2805

  Exact polarizability:     319.982      19.792     238.658      -8.078       1.494     131.534
 Approx polarizability:     424.117      55.188     425.629     -18.778       0.368     201.940

 Summary of Natural Population Analysis:

                                       Natural Population
                Natural  -----------------------------------------------
    Atom  No    Charge         Core      Valence    Rydberg      Total
 -----------------------------------------------------------------------
      O    1   -0.69485      1.99980     6.68735    0.00770     8.69485
      N    2   -0.51605      1.99935     5.49555    0.02114     7.51605
      C    3   -0.23050      1.99886     4.21229    0.01935     6.23050
      C    4    0.40524      1.99882     3.55700    0.03894     5.59476
      C    5   -0.20698      1.99899     4.18879    0.01920     6.20698
      C    6   -0.08671      1.99897     4.07225    0.01548     6.08671
      C    7   -0.02228      1.99895     4.00757    0.01575     6.02228
      C    8    0.12528      1.99906     3.84768    0.02798     5.87472
      C    9    0.16149      1.99902     3.81405    0.02543     5.83851
      C   10   -0.37080      1.99899     4.35086    0.02095     6.37080
      C   11   -0.16846      1.99905     4.15225    0.01717     6.16846
      C   12   -0.36801      1.99904     4.35204    0.01694     6.36801
      C   13   -0.17456      1.99906     4.15811    0.01739     6.17456
      C   14   -0.36560      1.99905     4.34939    0.01716     6.36560
      C   15   -0.16830      1.99905     4.15231    0.01694     6.16830
      C   16   -0.38432      1.99898     4.36557    0.01977     6.38432
      C   17   -0.37460      1.99897     4.35314    0.02249     6.37460
      C   18   -0.36269      1.99904     4.34657    0.01708     6.36269
      H   19    0.17542      0.00000     0.81912    0.00546     0.82458
      H   20    0.11186      0.00000     0.88077    0.00737     0.88814
      H   21    0.18682      0.00000     0.80795    0.00523     0.81318
      H   22    0.18303      0.00000     0.81366    0.00331     0.81697
      H   23    0.16689      0.00000     0.82862    0.00449     0.83311
      H   24    0.17949      0.00000     0.81652    0.00399     0.82051
      H   25    0.17391      0.00000     0.82196    0.00413     0.82609
      H   26    0.17382      0.00000     0.82190    0.00427     0.82618
      H   27    0.18040      0.00000     0.81578    0.00382     0.81960
      H   28    0.17248      0.00000     0.82347    0.00405     0.82752
      H   29    0.17026      0.00000     0.82502    0.00472     0.82974
      H   30    0.18324      0.00000     0.81316    0.00360     0.81676
      H   31    0.18809      0.00000     0.80699    0.00492     0.81191
      H   32    0.19187      0.00000     0.80340    0.00474     0.80813
      H   33    0.19154      0.00000     0.80354    0.00492     0.80846
      H   34    0.17185      0.00000     0.82405    0.00410     0.82815
      H   35    0.17765      0.00000     0.81852    0.00383     0.82235
      C   36   -0.17225      1.99906     4.15737    0.01583     6.17225
      C   37   -0.24774      1.99909     4.23257    0.01607     6.24774
      H   38    0.16676      0.00000     0.82980    0.00344     0.83324
      H   39    0.16523      0.00000     0.83140    0.00336     0.83477
      C   40   -0.19104      1.99904     4.17641    0.01558     6.19104
      H   41    0.16571      0.00000     0.83045    0.00384     0.83429
      C   42   -0.19640      1.99910     4.18210    0.01520     6.19640
      C   43   -0.20310      1.99902     4.18865    0.01542     6.20310
      H   44    0.16468      0.00000     0.83200    0.00332     0.83532
      H   45    0.17219      0.00000     0.82415    0.00366     0.82781
 =======================================================================
   * Total *   -1.00000     45.97836   117.49210    0.52954   164.00000

 ******   38 imaginary frequencies (negative Signs) ******

                      1                      2                      3
                      A                      A                      A
 Frequencies --  -1266.0030             -1257.0420             -1243.8469
 Red. masses --      1.0811                 1.0206                 1.0239
 Frc consts  --      1.0209                 0.9502                 0.9334
 IR Inten    --     53.3233                 1.5429                 2.4490

                      4                      5                      6
                      A                      A                      A
 Frequencies --  -1238.4247             -1222.4092             -1208.7842
 Red. masses --      1.0220                 1.0237                 1.0321
 Frc consts  --      0.9235                 0.9013                 0.8885
 IR Inten    --      0.7233                 2.2697                10.5091

                      7                      8                      9
                      A                      A                      A
 Frequencies --  -1207.5424             -1205.4179             -1200.1747
 Red. masses --      1.0216                 1.0604                 1.0451
 Frc consts  --      0.8777                 0.9078                 0.8870
 IR Inten    --      0.9745                13.3656                30.0523

                     10                     11                     12
                      A                      A                      A
 Frequencies --  -1167.5953             -1064.8453              -974.3688
 Red. masses --      1.0360                 1.0210                 1.0302
 Frc consts  --      0.8322                 0.6821                 0.5763
 IR Inten    --      0.3008                 1.3666                 0.5454

                     13                     14                     15
                      A                      A                      A
 Frequencies --   -970.3943              -910.4456              -874.8192
 Red. masses --      1.0198                 1.1245                 1.1256
 Frc consts  --      0.5658                 0.5492                 0.5075
 IR Inten    --      0.0892                 0.1914                 1.5402

                     16                     17                     18
                      A                      A                      A
 Frequencies --   -852.8918              -827.3479              -805.5721
 Red. masses --      1.1445                 1.2206                 1.2004
 Frc consts  --      0.4905                 0.4923                 0.4590
 IR Inten    --      4.1373                 7.2551                 4.0167

                     19                     20                     21
                      A                      A                      A
 Frequencies --   -787.5319              -755.6049              -739.8071
 Red. masses --      1.1721                 1.1808                 1.1652
 Frc consts  --      0.4283                 0.3972                 0.3757
 IR Inten    --     12.3913                 0.5465                 1.3991

                     22                     23                     24
                      A                      A                      A
 Frequencies --   -727.0294              -720.5066              -690.6475
 Red. masses --      1.1315                 1.1490                 1.1730
 Frc consts  --      0.3524                 0.3514                 0.3296
 IR Inten    --      0.7618                 0.6455                 1.5128

                     25                     26                     27
                      A                      A                      A
 Frequencies --   -674.7675              -647.9296              -633.5465
 Red. masses --      1.1585                 1.1551                 1.1239
 Frc consts  --      0.3108                 0.2857                 0.2658
 IR Inten    --      2.5077                 1.2778                 4.2081

                     28                     29                     30
                      A                      A                      A
 Frequencies --   -595.9356              -594.1471              -562.6584
 Red. masses --      1.2135                 1.0564                 1.0514
 Frc consts  --      0.2539                 0.2197                 0.1961
 IR Inten    --      1.8875                 0.9985                 1.5423

                     31                     32                     33
                      A                      A                      A
 Frequencies --   -560.5327              -532.4142              -511.3097
 Red. masses --      1.0635                 1.0645                 1.2331
 Frc consts  --      0.1969                 0.1778                 0.1899
 IR Inten    --      1.3246                 0.8774                11.3973

                     34                     35                     36
                      A                      A                      A
 Frequencies --   -480.8276              -454.0895              -444.0706
 Red. masses --      1.0927                 1.1681                 1.2179
 Frc consts  --      0.1488                 0.1419                 0.1415
 IR Inten    --      1.7450                 6.4691                 4.9919

                     37                     38                     39
                      A                      A                      A
 Frequencies --   -359.9950              -206.7883               139.9204
 Red. masses --      1.1549                 1.4813                10.3573
 Frc consts  --      0.0882                 0.0373                 0.1195
 IR Inten    --      6.1006                 1.8023                 2.7771

                     40                     41                     42
                      A                      A                      A
 Frequencies --    176.3472               204.0652               240.6842
 Red. masses --      7.9256                 6.7315                 8.9902
 Frc consts  --      0.1452                 0.1652                 0.3068
 IR Inten    --      0.9118                 0.3527                 0.0307

                     43                     44                     45
                      A                      A                      A
 Frequencies --    283.8648               305.0032               355.9079
 Red. masses --      5.9425                 9.4519                 7.7213
 Frc consts  --      0.2821                 0.5181                 0.5763
 IR Inten    --      2.2198                 0.4348                 0.7219

                     46                     47                     48
                      A                      A                      A
 Frequencies --    400.8123               436.6676               457.2697
 Red. masses --      5.3238                 4.5034                 6.9792
 Frc consts  --      0.5039                 0.5059                 0.8598
 IR Inten    --      0.8451                 1.7300                 1.6791

                     49                     50                     51
                      A                      A                      A
 Frequencies --    469.5552               481.0244               499.9068
 Red. masses --      6.4116                 6.1483                 8.3434
 Frc consts  --      0.8329                 0.8382                 1.2285
 IR Inten    --     13.9117                11.1237                 3.4677

                     52                     53                     54
                      A                      A                      A
 Frequencies --    533.8754               571.0143               628.3336
 Red. masses --      5.6255                10.8671                10.0570
 Frc consts  --      0.9447                 2.0876                 2.3394
 IR Inten    --      1.1250                 0.2047                 0.9647

                     55                     56                     57
                      A                      A                      A
 Frequencies --    631.4124               648.6366               653.1281
 Red. masses --      4.4819                 3.5748                 4.6976
 Frc consts  --      1.0528                 0.8861                 1.1807
 IR Inten    --     10.9426                 1.6898                 5.8600

                     58                     59                     60
                      A                      A                      A
 Frequencies --    658.7818               675.9822               683.5990
 Red. masses --      4.0800                 4.6705                 2.6836
 Frc consts  --      1.0433                 1.2574                 0.7389
 IR Inten    --      4.1196                 5.3859                 7.0812

                     61                     62                     63
                      A                      A                      A
 Frequencies --    696.4911               720.7536               726.9785
 Red. masses --      3.0106                 1.5388                 2.5274
 Frc consts  --      0.8605                 0.4710                 0.7870
 IR Inten    --      1.5944                 5.7971                 7.1891

                     64                     65                     66
                      A                      A                      A
 Frequencies --    732.2216               739.6620               746.8253
 Red. masses --      3.1773                 2.1119                 2.6812
 Frc consts  --      1.0037                 0.6808                 0.8811
 IR Inten    --      1.7103                 1.1093                 8.9335

                     67                     68                     69
                      A                      A                      A
 Frequencies --    754.0688               763.7605               778.9506
 Red. masses --      1.6085                 1.5941                 2.0751
 Frc consts  --      0.5389                 0.5479                 0.7418
 IR Inten    --      5.6877                 3.6964                 8.3825

                     70                     71                     72
                      A                      A                      A
 Frequencies --    782.0588               787.3444               795.0371
 Red. masses --      1.3279                 2.0938                10.2599
 Frc consts  --      0.4785                 0.7647                 3.8209
 IR Inten    --      5.0811                 6.3380                 5.1969

                     73                     74                     75
                      A                      A                      A
 Frequencies --    802.4188               819.0188               828.5907
 Red. masses --      5.6056                 1.5911                 3.4989
 Frc consts  --      2.1265                 0.6288                 1.4153
 IR Inten    --      2.6480                 0.7589                 3.9373

                     76                     77                     78
                      A                      A                      A
 Frequencies --    838.0225               872.3235               893.7060
 Red. masses --      3.4604                11.0807                 2.5850
 Frc consts  --      1.4318                 4.9679                 1.2165
 IR Inten    --      9.8861                 4.4473                 5.7484

                     79                     80                     81
                      A                      A                      A
 Frequencies --    900.9392               906.4455               930.9277
 Red. masses --      2.6129                 2.9338                 4.1210
 Frc consts  --      1.2496                 1.4202                 2.1042
 IR Inten    --      3.6342                 2.6988                14.5507

                     82                     83                     84
                      A                      A                      A
 Frequencies --    983.4572              1017.6357              1032.8651
 Red. masses --      6.4236                 7.5707                 7.1567
 Frc consts  --      3.6605                 4.6192                 4.4983
 IR Inten    --      2.3741                 5.4193                 9.5431

                     85                     86                     87
                      A                      A                      A
 Frequencies --   1042.2423              1070.9116              1114.5363
 Red. masses --      7.9141                 6.6354                 4.5241
 Frc consts  --      5.0651                 4.4836                 3.3111
 IR Inten    --      2.2850                34.5985                97.6129

                     88                     89                     90
                      A                      A                      A
 Frequencies --   1180.3959              1203.5311              1230.6541
 Red. masses --      5.4082                 5.9760                 6.2972
 Frc consts  --      4.4397                 5.1001                 5.6192
 IR Inten    --      7.0415                 2.6042                11.8678

                     91                     92                     93
                      A                      A                      A
 Frequencies --   1238.6129              1243.7552              1253.7761
 Red. masses --      6.9348                 6.4389                 6.3595
 Frc consts  --      6.2684                 5.8685                 5.8899
 IR Inten    --     10.9201                15.0020                11.4512

                     94                     95                     96
                      A                      A                      A
 Frequencies --   1281.8146              1282.3494              1298.7008
 Red. masses --      6.0089                 6.5062                 8.7669
 Frc consts  --      5.8170                 6.3036                 8.7120
 IR Inten    --      0.9807                 1.0666                30.4092

                     97                     98                     99
                      A                      A                      A
 Frequencies --   1312.8145              1381.2360              1410.7196
 Red. masses --      7.0574                 8.8739                 9.5431
 Frc consts  --      7.1664                 9.9747                11.1897
 IR Inten    --     10.8492                36.6184                28.7597

                    100                    101                    102
                      A                      A                      A
 Frequencies --   1465.5832              1483.9065              1498.3439
 Red. masses --      9.9471                 9.8043                10.0166
 Frc consts  --     12.5884                12.7198                13.2494
 IR Inten    --     30.0654                91.4574               266.8956

                    103                    104                    105
                      A                      A                      A
 Frequencies --   1596.7678              1611.6228              1658.0911
 Red. masses --     10.5490                10.6629                10.4150
 Frc consts  --     15.8470                16.3175                16.8704
 IR Inten    --    426.6222               267.5320                56.7207

                    106                    107                    108
                      A                      A                      A
 Frequencies --   1688.4023              1711.3111              4626.5962
 Red. masses --     11.0511                10.5610                 1.0639
 Frc consts  --     18.5613                18.2227                13.4177
 IR Inten    --     79.9779                20.9700                 6.6006

                    109                    110                    111
                      A                      A                      A
 Frequencies --   4626.8138              4633.8761              4637.9301
 Red. masses --      1.0763                 1.0606                 1.0634
 Frc consts  --     13.5755                13.4179                13.4769
 IR Inten    --     12.6292                33.1144                24.5581

                    112                    113                    114
                      A                      A                      A
 Frequencies --   4655.0167              4665.7020              4682.1198
 Red. masses --      1.0621                 1.0595                 1.0587
 Frc consts  --     13.5601                13.5889                13.6738
 IR Inten    --     44.9844                 7.2720                27.7662

                    115                    116                    117
                      A                      A                      A
 Frequencies --   4693.7192              4709.4838              4721.6158
 Red. masses --      1.0881                 1.0869                 1.0867
 Frc consts  --     14.1243                14.2026                14.2734
 IR Inten    --     10.3537                 9.0988                11.4730

                    118                    119                    120
                      A                      A                      A
 Frequencies --   4728.4809              4728.8906              4732.7840
 Red. masses --      1.0901                 1.0870                 1.0874
 Frc consts  --     14.3606                14.3220                14.3503
 IR Inten    --      5.9528                 1.9135                32.3905

                    121                    122                    123
                      A                      A                      A
 Frequencies --   4744.6727              4763.7298              4764.8980
 Red. masses --      1.0910                 1.0877                 1.1104
 Frc consts  --     14.4711                14.5425                14.8539
 IR Inten    --     16.3570                30.5881                 7.2659

                    124                    125                    126
                      A                      A                      A
 Frequencies --   4768.7298              4777.0090              4778.8378
 Red. masses --      1.0911                 1.1097                 1.1087
 Frc consts  --     14.6193                14.9198                14.9182
 IR Inten    --     13.1934                 5.2874                14.7433

                    127                    128                    129
                      A                      A                      A
 Frequencies --   4815.6028              4817.3816              4832.5877
 Red. masses --      1.1068                 1.1093                 1.1101
 Frc consts  --     15.1222                15.1673                15.2744
 IR Inten    --     12.7917                 6.7190                15.0068

 - Thermochemistry -
 -------------------
 Temperature   298.150 Kelvin.  Pressure   1.00000 Atm.
 Atom     1 has atomic number  8 and mass  15.99491

 Molecular mass:   304.17014 amu.
 Principal axes and moments of inertia in atomic units:
                           1         2         3
     Eigenvalues --  2976.06538********************
           X            1.00000   0.00092  -0.00020
           Y           -0.00092   0.99999   0.00367
           Z            0.00020  -0.00367   0.99999
 This molecule is an asymmetric top.
 Rotational symmetry number  1.
 Warning -- assumption of classical behavior for rotation
           may cause significant error
 Rotational temperatures (Kelvin)      0.02910     0.00659     0.00575
 Rotational constants (GHZ):           0.60642     0.13723     0.11983
   38 imaginary frequencies ignored.
 Zero-point vibrational energy     987833.4 (Joules/Mol)
                                  236.09786 (Kcal/Mol)
 Warning -- explicit consideration of  15 degrees of freedom as
           vibrations may cause significant error
 Vibrational temperatures:    201.31   253.72   293.60   346.29   408.42
          (Kelvin)            438.83   512.07   576.68   628.27   657.91
                              675.59   692.09   719.25   768.13   821.56
                              904.03   908.46   933.24   939.71   947.84
                              972.59   983.55  1002.10  1037.00  1045.96
                             1053.50  1064.21  1074.51  1084.94  1098.88
                             1120.74  1125.21  1132.81  1143.88  1154.50
                             1178.39  1192.16  1205.73  1255.08  1285.84
                             1296.25  1304.17  1339.40  1414.98  1464.15
                             1486.06  1499.55  1540.80  1603.57  1698.33
                             1731.61  1770.64  1782.09  1789.49  1803.90
                             1844.25  1845.01  1868.54  1888.85  1987.29
                             2029.71  2108.65  2135.01  2155.78  2297.39
                             2318.77  2385.62  2429.23  2462.20  6656.64
                             6656.95  6667.11  6672.95  6697.53  6712.90
                             6736.53  6753.22  6775.90  6793.35  6803.23
                             6803.82  6809.42  6826.53  6853.94  6855.63
                             6861.14  6873.05  6875.68  6928.58  6931.14
                             6953.02

 Zero-point correction=                           0.376246 (Hartree/Particle)
 Thermal correction to Energy=                    0.387516
 Thermal correction to Enthalpy=                  0.388460
 Thermal correction to Gibbs Free Energy=         0.338767
 Sum of electronic and zero-point Energies=           -941.013379
 Sum of electronic and thermal Energies=              -941.002108
 Sum of electronic and thermal Enthalpies=            -941.001164
 Sum of electronic and thermal Free Energies=         -941.050858

                     E (Thermal)             CV                S
                      KCal/Mol        Cal/Mol-Kelvin    Cal/Mol-Kelvin
 Total                  243.170             53.247            104.589
 Electronic               0.000              0.000              0.000
 Translational            0.889              2.981             43.034
 Rotational               0.889              2.981             34.732
 Vibrational            241.393             47.286             26.823
 Vibration     1          0.615              1.913              2.805
 Vibration     2          0.628              1.871              2.367
 Vibration     3          0.640              1.834              2.096
 Vibration     4          0.658              1.778              1.798
 Vibration     5          0.682              1.704              1.510
 Vibration     6          0.696              1.664              1.389
 Vibration     7          0.731              1.563              1.140
 Vibration     8          0.767              1.468              0.960
 Vibration     9          0.797              1.390              0.837
 Vibration    10          0.815              1.345              0.774
 Vibration    11          0.827              1.318              0.739
 Vibration    12          0.837              1.292              0.707
 Vibration    13          0.855              1.250              0.658
 Vibration    14          0.889              1.175              0.579
 Vibration    15          0.927              1.094              0.502

 Normal termination of Gaussian 16 at Mon Mar  6 12:16:12 2023.
