 Gaussian 16, Revision C.01,
 Gaussian 16:  ES64L-G16RevC.01  3-Jul-2019

 ----------------------------------------------------------------------
 #p pop=(regular,nbo,savenbos) freq=noraman def2svp empiricaldispersion
 =gd3bj output=wfx pbe1pbe
 ----------------------------------------------------------------------

 ----------------------------------------
 KOKCES_Complex_0_Ligand_0_ON_Cu_oriented
 ----------------------------------------
 Symbolic Z-matrix:
 Charge = -1 Multiplicity = 1

                         Standard orientation:
 ---------------------------------------------------------------------
 Center     Atomic      Atomic             Coordinates (Angstroms)
 Number     Number       Type             X           Y           Z
 ---------------------------------------------------------------------
      1          8           0       -1.324543    3.037319   -0.326795
      2          6           0       -1.765793    0.686756   -0.391553
      3          6           0       -2.122557    2.026452   -0.146397
      4          6           0       -3.424058    2.315729    0.371044
      5          6           0       -4.335926    1.354813    0.564350
      6          6           0       -5.026170   -1.011162    0.467979
      7          6           0       -4.753793   -2.326494    0.184355
      8          6           0       -3.517182   -2.664524   -0.333915
      9          6           0       -2.544078   -1.718743   -0.534795
     10          6           0       -4.052285   -0.011666    0.262208
     11          6           0       -2.770876   -0.358465   -0.228668
     12          6           0       -0.404661    0.324320   -0.645292
     13          1           0       -3.649163    3.217643    0.575548
     14          1           0       -5.190475    1.590923    0.913634
     15          1           0       -5.879516   -0.768832    0.802835
     16          1           0       -5.411373   -2.991400    0.345675
     17          1           0       -3.337516   -3.569122   -0.559431
     18          1           0       -1.703333   -1.979187   -0.888899
     19          7           0        0.608020    1.119906   -0.803227
     20          6           0        2.175001   -0.953030   -0.782979
     21          6           0        1.980527    0.562196   -0.933507
     22          6           0        2.931779    1.273404    0.055639
     23          6           0        4.362950    0.959941   -0.369497
     24          6           0        4.603899   -0.540304   -0.307463
     25          6           0        4.401421   -1.019289    1.126864
     26          6           0        2.970853   -0.717848    1.566616
     27          6           0        1.987503   -1.444890    0.657149
     28          6           0        3.609499   -1.260386   -1.219762
     29          6           0        2.682925    0.786780    1.479018
     30          1           0        1.565462   -1.407082   -1.354044
     31          1           0        2.281550    0.785910   -1.807102
     32          1           0        2.788043    2.209105    0.009240
     33          1           0        4.505308    1.272340   -1.254974
     34          1           0        4.966100    1.403048    0.220498
     35          1           0        5.490848   -0.734706   -0.590605
     36          1           0        4.557153   -1.955945    1.176444
     37          1           0        5.010918   -0.568610    1.701386
     38          1           0        2.846747   -1.010500    2.463877
     39          1           0        1.100812   -1.270374    0.943053
     40          1           0        2.154494   -2.381651    0.695256
     41          1           0        3.761471   -2.197732   -1.169445
     42          1           0        3.737730   -0.967996   -2.115639
     43          1           0        3.253652    1.258803    2.073338
     44          1           0        1.777258    0.953687    1.711214
     45          1           0       -0.219840   -0.607758   -0.703277
 ---------------------------------------------------------------------

 SCF Done:  E(RPBE1PBE) =  -941.388457393     A.U. after   18 cycles

 The electronic state is 1-A.
 Alpha  occ. eigenvalues --  -18.96530 -14.20753 -10.11448 -10.10933 -10.10760
 Alpha  occ. eigenvalues --  -10.10757 -10.10210 -10.10017 -10.09695 -10.09575
 Alpha  occ. eigenvalues --  -10.09467 -10.09358 -10.09333 -10.09183 -10.09004
 Alpha  occ. eigenvalues --  -10.08940 -10.08374 -10.08363 -10.08345 -10.08006
 Alpha  occ. eigenvalues --  -10.07831 -10.06353 -10.05888  -0.80826  -0.80273
 Alpha  occ. eigenvalues --   -0.76167  -0.75295  -0.70553  -0.70025  -0.69438
 Alpha  occ. eigenvalues --   -0.68633  -0.65716  -0.62111  -0.61039  -0.60458
 Alpha  occ. eigenvalues --   -0.57906  -0.53073  -0.52421  -0.51719  -0.51451
 Alpha  occ. eigenvalues --   -0.50040  -0.48237  -0.45857  -0.44156  -0.41719
 Alpha  occ. eigenvalues --   -0.40735  -0.39716  -0.39460  -0.38729  -0.37957
 Alpha  occ. eigenvalues --   -0.35632  -0.34807  -0.34546  -0.33858  -0.32897
 Alpha  occ. eigenvalues --   -0.32207  -0.31640  -0.31362  -0.30934  -0.30204
 Alpha  occ. eigenvalues --   -0.29539  -0.27486  -0.26894  -0.26029  -0.25035
 Alpha  occ. eigenvalues --   -0.24948  -0.24679  -0.23895  -0.23641  -0.22496
 Alpha  occ. eigenvalues --   -0.21317  -0.20076  -0.19853  -0.19620  -0.18741
 Alpha  occ. eigenvalues --   -0.18189  -0.15382  -0.13928  -0.09886  -0.09529
 Alpha  occ. eigenvalues --   -0.04296  -0.03276
 Alpha virt. eigenvalues --    0.10180   0.13234   0.15571   0.16196   0.19475
 Alpha virt. eigenvalues --    0.20048   0.20469   0.20983   0.21437   0.21602
 Alpha virt. eigenvalues --    0.22564   0.23130   0.23618   0.24000   0.25352

 Mulliken charges:
               1
     1  O   -0.403217
     2  C   -0.074624
     3  C    0.118562
     4  C    0.038952
     5  C    0.075183
     6  C    0.049797
     7  C    0.052893
     8  C    0.085289
     9  C    0.023743
    10  C   -0.008423
    11  C    0.065315
    12  C    0.067286
    13  H   -0.132791
    14  H   -0.134285
    15  H   -0.133151
    16  H   -0.120996
    17  H   -0.117049
    18  H   -0.132819
    19  N   -0.185243
    20  C   -0.182945
    21  C    0.188812
    22  C   -0.101655
    23  C    0.296535
    24  C   -0.189099
    25  C    0.286273
    26  C   -0.197425
    27  C    0.314121
    28  C    0.317938
    29  C    0.306703
    30  H   -0.056640
    31  H   -0.083224
    32  H   -0.066012
    33  H   -0.073445
    34  H   -0.074046
    35  H   -0.079510
    36  H   -0.075516
    37  H   -0.073239
    38  H   -0.074197
    39  H   -0.051943
    40  H   -0.076784
    41  H   -0.079953
    42  H   -0.072898
    43  H   -0.078495
    44  H   -0.038817
    45  H   -0.118962
 Sum of Mulliken charges =  -1.00000

 Dipole moment (field-independent basis, Debye):
    X=              6.7833    Y=             -6.3719    Z=              1.3772  Tot=              9.4080
 Quadrupole moment (field-independent basis, Debye-Ang):
   XX=           -168.5846   YY=           -163.1674   ZZ=           -140.7993
   XY=              1.9303   XZ=             -3.0626   YZ=              4.9491

  Exact polarizability:     302.844      24.157     237.700     -23.842       5.879     137.235
 Approx polarizability:     405.980      62.837     422.450     -49.103       7.379     214.963

 Summary of Natural Population Analysis:

                                       Natural Population
                Natural  -----------------------------------------------
    Atom  No    Charge         Core      Valence    Rydberg      Total
 -----------------------------------------------------------------------
      O    1   -0.68917      1.99980     6.68130    0.00808     8.68917
      C    2   -0.23721      1.99888     4.21876    0.01958     6.23721
      C    3    0.41207      1.99887     3.54942    0.03964     5.58793
      C    4   -0.20869      1.99898     4.19036    0.01934     6.20869
      C    5   -0.18741      1.99904     4.17264    0.01573     6.18741
      C    6   -0.16699      1.99906     4.15224    0.01570     6.16699
      C    7   -0.24941      1.99911     4.23434    0.01597     6.24941
      C    8   -0.19641      1.99911     4.18244    0.01487     6.19641
      C    9   -0.20061      1.99904     4.18642    0.01515     6.20061
      C   10   -0.09360      1.99894     4.07927    0.01539     6.09360
      C   11   -0.02042      1.99896     4.00568    0.01579     6.02042
      C   12    0.11976      1.99903     3.85505    0.02616     5.88024
      H   13    0.17416      0.00000     0.82046    0.00538     0.82584
      H   14    0.16473      0.00000     0.83135    0.00392     0.83527
      H   15    0.16499      0.00000     0.83157    0.00345     0.83501
      H   16    0.16444      0.00000     0.83232    0.00324     0.83556
      H   17    0.16385      0.00000     0.83285    0.00330     0.83615
      H   18    0.17045      0.00000     0.82608    0.00347     0.82955
      N   19   -0.51256      1.99936     5.49351    0.01969     7.51256
      C   20   -0.20843      1.99902     4.19219    0.01722     6.20843
      C   21    0.00221      1.99884     3.97302    0.02593     5.99779
      C   22   -0.16954      1.99899     4.15036    0.02020     6.16954
      C   23   -0.36855      1.99904     4.35195    0.01756     6.36855
      C   24   -0.17144      1.99905     4.15573    0.01665     6.17144
      C   25   -0.36770      1.99904     4.35165    0.01701     6.36770
      C   26   -0.17270      1.99906     4.15676    0.01689     6.17270
      C   27   -0.36189      1.99904     4.34541    0.01743     6.36189
      C   28   -0.35918      1.99905     4.34273    0.01741     6.35918
      C   29   -0.36244      1.99904     4.34543    0.01797     6.36244
      H   30    0.17941      0.00000     0.81585    0.00473     0.82059
      H   31    0.16308      0.00000     0.83086    0.00606     0.83692
      H   32    0.18626      0.00000     0.80679    0.00695     0.81374
      H   33    0.17821      0.00000     0.81780    0.00399     0.82179
      H   34    0.17605      0.00000     0.81977    0.00417     0.82395
      H   35    0.16758      0.00000     0.82810    0.00432     0.83242
      H   36    0.17447      0.00000     0.82142    0.00410     0.82553
      H   37    0.17536      0.00000     0.82060    0.00404     0.82464
      H   38    0.17028      0.00000     0.82546    0.00427     0.82972
      H   39    0.19333      0.00000     0.80335    0.00333     0.80667
      H   40    0.17264      0.00000     0.82327    0.00408     0.82736
      H   41    0.17411      0.00000     0.82147    0.00442     0.82589
      H   42    0.17817      0.00000     0.81783    0.00400     0.82183
      H   43    0.17200      0.00000     0.82421    0.00380     0.82800
      H   44    0.19778      0.00000     0.79711    0.00511     0.80222
      H   45    0.10898      0.00000     0.88252    0.00850     0.89102
 =======================================================================
   * Total *   -1.00000     45.97832   117.49768    0.52399   164.00000

 ******   39 imaginary frequencies (negative Signs) ******

                      1                      2                      3
                      A                      A                      A
 Frequencies --  -1290.5515             -1243.9546             -1235.1761
 Red. masses --      1.0811                 1.0194                 1.0216
 Frc consts  --      1.0609                 0.9294                 0.9183
 IR Inten    --     57.9777                 4.9219                 7.4565

                      4                      5                      6
                      A                      A                      A
 Frequencies --  -1229.6281             -1227.8102             -1224.8213
 Red. masses --      1.0275                 1.0334                 1.0533
 Frc consts  --      0.9153                 0.9179                 0.9310
 IR Inten    --      4.3665                11.3123                11.3608

                      7                      8                      9
                      A                      A                      A
 Frequencies --  -1224.1482             -1205.0893             -1169.3460
 Red. masses --      1.0272                 1.0386                 1.0461
 Frc consts  --      0.9069                 0.8887                 0.8428
 IR Inten    --      7.1982                 2.0102                23.8259

                     10                     11                     12
                      A                      A                      A
 Frequencies --  -1102.8005             -1009.1476              -982.2646
 Red. masses --      1.0241                 1.0320                 1.0190
 Frc consts  --      0.7338                 0.6192                 0.5793
 IR Inten    --      0.7176                 0.3601                 0.1250

                     13                     14                     15
                      A                      A                      A
 Frequencies --   -881.8518              -880.4722              -875.1152
 Red. masses --      1.1136                 1.1185                 1.1163
 Frc consts  --      0.5102                 0.5109                 0.5037
 IR Inten    --      1.7088                 0.7222                 1.2893

                     16                     17                     18
                      A                      A                      A
 Frequencies --   -830.1160              -822.3897              -801.4309
 Red. masses --      1.2142                 1.2219                 1.2123
 Frc consts  --      0.4930                 0.4869                 0.4588
 IR Inten    --      0.8389                 1.3318                 0.7273

                     19                     20                     21
                      A                      A                      A
 Frequencies --   -760.9701              -751.3265              -730.4641
 Red. masses --      1.3427                 1.3179                 1.1027
 Frc consts  --      0.4581                 0.4383                 0.3466
 IR Inten    --     12.4062                 1.8596                 0.1385

                     22                     23                     24
                      A                      A                      A
 Frequencies --   -715.5994              -697.9505              -693.9410
 Red. masses --      1.1073                 1.1554                 1.1258
 Frc consts  --      0.3341                 0.3316                 0.3194
 IR Inten    --      0.0567                 0.1814                 0.3401

                     25                     26                     27
                      A                      A                      A
 Frequencies --   -663.0156              -654.9560              -639.3608
 Red. masses --      1.1468                 1.1451                 1.1825
 Frc consts  --      0.2970                 0.2894                 0.2848
 IR Inten    --      4.8999                 1.9602                 6.4004

                     28                     29                     30
                      A                      A                      A
 Frequencies --   -600.0944              -572.0402              -541.3444
 Red. masses --      1.2241                 1.0489                 1.2055
 Frc consts  --      0.2597                 0.2022                 0.2081
 IR Inten    --     21.9579                 6.2531                 7.5121

                     31                     32                     33
                      A                      A                      A
 Frequencies --   -539.3038              -535.2376              -527.1672
 Red. masses --      1.0659                 1.0461                 1.0683
 Frc consts  --      0.1827                 0.1766                 0.1749
 IR Inten    --      5.1617                 4.4638                 4.6578

                     34                     35                     36
                      A                      A                      A
 Frequencies --   -525.1580              -516.7859              -504.2345
 Red. masses --      1.0809                 1.0690                 1.0689
 Frc consts  --      0.1756                 0.1682                 0.1601
 IR Inten    --      0.7395                 2.3611                13.5688

                     37                     38                     39
                      A                      A                      A
 Frequencies --   -483.9210              -442.8604              -178.3731
 Red. masses --      1.1618                 1.1560                 1.6438
 Frc consts  --      0.1603                 0.1336                 0.0308
 IR Inten    --     13.4909                 4.2851                 0.1326

                     40                     41                     42
                      A                      A                      A
 Frequencies --    141.7979               173.8596               207.9284
 Red. masses --     10.7169                 6.2541                 7.4731
 Frc consts  --      0.1270                 0.1114                 0.1904
 IR Inten    --      2.9557                 0.4311                 0.2141

                     43                     44                     45
                      A                      A                      A
 Frequencies --    245.1497               267.0617               327.6829
 Red. masses --      6.1428                 9.3974                 9.5465
 Frc consts  --      0.2175                 0.3949                 0.6040
 IR Inten    --      2.0010                 0.8132                 0.7327

                     46                     47                     48
                      A                      A                      A
 Frequencies --    391.5253               417.0781               426.0576
 Red. masses --      5.0986                 5.1700                 4.8197
 Frc consts  --      0.4605                 0.5299                 0.5155
 IR Inten    --      9.0981                 1.6261                 0.5222

                     49                     50                     51
                      A                      A                      A
 Frequencies --    460.2862               466.8680               480.3905
 Red. masses --      7.5257                 7.1976                 5.9915
 Frc consts  --      0.9394                 0.9243                 0.8147
 IR Inten    --      5.6670                12.3549                 8.3499

                     52                     53                     54
                      A                      A                      A
 Frequencies --    510.8855               564.6972               604.2332
 Red. masses --      6.1930                 7.7244                 4.3604
 Frc consts  --      0.9524                 1.4513                 0.9380
 IR Inten    --      0.7259                 1.4492                 6.2505

                     55                     56                     57
                      A                      A                      A
 Frequencies --    626.2084               634.9579               649.2911
 Red. masses --      4.6030                 9.3604                 4.1531
 Frc consts  --      1.0635                 2.2235                 1.0316
 IR Inten    --     10.4273                 1.1710                 8.6870

                     58                     59                     60
                      A                      A                      A
 Frequencies --    660.8363               672.1406               691.3955
 Red. masses --      3.6092                 7.3570                 3.0538
 Frc consts  --      0.9287                 1.9583                 0.8601
 IR Inten    --      1.7312                 2.9538                 3.0934

                     61                     62                     63
                      A                      A                      A
 Frequencies --    694.7537               713.4076               715.8825
 Red. masses --      3.2766                 3.1643                 3.6562
 Frc consts  --      0.9318                 0.9489                 1.1040
 IR Inten    --      3.3422                 4.8878                 1.3006

                     64                     65                     66
                      A                      A                      A
 Frequencies --    721.3427               751.0107               757.4220
 Red. masses --      3.8174                 3.2901                 1.1868
 Frc consts  --      1.1703                 1.0933                 0.4011
 IR Inten    --      1.2734                 3.1343                 0.4085

                     67                     68                     69
                      A                      A                      A
 Frequencies --    765.5957               769.5121               774.0244
 Red. masses --      1.9198                 1.2458                 2.6080
 Frc consts  --      0.6630                 0.4346                 0.9206
 IR Inten    --      5.7122                 4.0779                 6.6025

                     70                     71                     72
                      A                      A                      A
 Frequencies --    777.2103               795.1617               798.9939
 Red. masses --      1.5251                 6.2587                 6.8684
 Frc consts  --      0.5428                 2.3315                 2.5834
 IR Inten    --      5.7796                 2.1478                 5.3199

                     73                     74                     75
                      A                      A                      A
 Frequencies --    803.6208               813.4511               826.3526
 Red. masses --      1.5374                 3.1149                 3.7284
 Frc consts  --      0.5850                 1.2144                 1.5000
 IR Inten    --      5.0506                 5.1260                 7.7572

                     76                     77                     78
                      A                      A                      A
 Frequencies --    844.1611               874.0876               895.0201
 Red. masses --      2.8351                10.7441                 3.5110
 Frc consts  --      1.1903                 4.8365                 1.6571
 IR Inten    --      4.0997                 3.8460                 3.5320

                     79                     80                     81
                      A                      A                      A
 Frequencies --    909.8305               928.9387               976.5222
 Red. masses --      2.7705                 3.2125                 5.9904
 Frc consts  --      1.3512                 1.6333                 3.3656
 IR Inten    --      8.6590                 8.0775                 0.8030

                     82                     83                     84
                      A                      A                      A
 Frequencies --   1005.0734              1018.7635              1025.6171
 Red. masses --      5.7120                 7.1903                 7.4643
 Frc consts  --      3.3997                 4.3969                 4.6261
 IR Inten    --     38.3736                 0.3426                 7.1947

                     85                     86                     87
                      A                      A                      A
 Frequencies --   1051.3417              1076.9271              1098.1091
 Red. masses --      7.3514                 6.6463                 4.1722
 Frc consts  --      4.7875                 4.5415                 2.9642
 IR Inten    --     10.1251                35.1729                16.3975

                     88                     89                     90
                      A                      A                      A
 Frequencies --   1174.6422              1180.4996              1217.5149
 Red. masses --      5.6647                 5.5286                 6.4168
 Frc consts  --      4.6051                 4.5394                 5.6042
 IR Inten    --      8.3995                 0.1055                 0.6877

                     91                     92                     93
                      A                      A                      A
 Frequencies --   1222.6077              1232.0107              1237.1519
 Red. masses --      7.0398                 6.7730                 6.8549
 Frc consts  --      6.1999                 6.0570                 6.1816
 IR Inten    --     17.7973                 5.5456                 3.9039

                     94                     95                     96
                      A                      A                      A
 Frequencies --   1240.6553              1252.0136              1256.0876
 Red. masses --      5.9837                 5.8280                 6.1113
 Frc consts  --      5.4266                 5.3825                 5.6810
 IR Inten    --      5.8647                 0.9150                 5.2348

                     97                     98                     99
                      A                      A                      A
 Frequencies --   1285.8137              1371.5077              1422.4918
 Red. masses --      8.5061                 9.0958                10.0542
 Frc consts  --      8.2859                10.0807                11.9866
 IR Inten    --     14.6911                30.9716                42.9582

                    100                    101                    102
                      A                      A                      A
 Frequencies --   1432.4964              1464.4376              1500.6755
 Red. masses --      9.9081                10.1794                 9.7962
 Frc consts  --     11.9792                12.8622                12.9981
 IR Inten    --    139.4122                12.0102               254.1244

                    103                    104                    105
                      A                      A                      A
 Frequencies --   1576.8024              1627.1233              1654.2239
 Red. masses --     10.2018                10.5520                10.9391
 Frc consts  --     14.9445                16.4599                17.6368
 IR Inten    --     21.8848               633.1482                35.2753

                    106                    107                    108
                      A                      A                      A
 Frequencies --   1673.1357              1717.3166              4632.9453
 Red. masses --     10.8297                10.2854                 1.0597
 Frc consts  --     17.8619                17.8719                13.4018
 IR Inten    --     66.1910                35.5304                31.5197

                    109                    110                    111
                      A                      A                      A
 Frequencies --   4640.3960              4641.8839              4648.6568
 Red. masses --      1.0582                 1.0586                 1.0611
 Frc consts  --     13.4260                13.4395                13.5099
 IR Inten    --     23.9516                35.1191                19.7244

                    112                    113                    114
                      A                      A                      A
 Frequencies --   4663.1157              4704.0494              4707.0452
 Red. masses --      1.0587                 1.0873                 1.0857
 Frc consts  --     13.5638                14.1757                14.1725
 IR Inten    --     18.9485                28.0632                14.9772

                    115                    116                    117
                      A                      A                      A
 Frequencies --   4712.2644              4715.4321              4716.8049
 Red. masses --      1.0874                 1.0869                 1.0878
 Frc consts  --     14.2266                14.2386                14.2588
 IR Inten    --     41.2042                28.1119                 9.0958

                    118                    119                    120
                      A                      A                      A
 Frequencies --   4722.9889              4747.7142              4760.5832
 Red. masses --      1.0872                 1.0909                 1.0861
 Frc consts  --     14.2892                14.4877                14.5030
 IR Inten    --     13.8731                 7.5203                 2.4665

                    121                    122                    123
                      A                      A                      A
 Frequencies --   4770.6274              4773.7130              4777.1160
 Red. masses --      1.0879                 1.0885                 1.1087
 Frc consts  --     14.5876                14.6150                14.9069
 IR Inten    --      5.6794                 5.2043                 9.9232

                    124                    125                    126
                      A                      A                      A
 Frequencies --   4778.4950              4778.9815              4783.1500
 Red. masses --      1.1102                 1.1102                 1.0901
 Frc consts  --     14.9358                14.9391                14.6943
 IR Inten    --     14.8069                19.2773                10.1893

                    127                    128                    129
                      A                      A                      A
 Frequencies --   4789.8860              4802.8729              4804.7735
 Red. masses --      1.0915                 1.1104                 1.1076
 Frc consts  --     14.7542                15.0921                15.0651
 IR Inten    --     12.5544                 9.1947                 6.6276

 - Thermochemistry -
 -------------------
 Temperature   298.150 Kelvin.  Pressure   1.00000 Atm.
 Atom     1 has atomic number  8 and mass  15.99491

 Molecular mass:   304.17014 amu.
 Principal axes and moments of inertia in atomic units:
                           1         2         3
     Eigenvalues --  3145.53692********************
           X            1.00000   0.00099  -0.00089
           Y           -0.00098   0.99994   0.01084
           Z            0.00090  -0.01084   0.99994
 This molecule is an asymmetric top.
 Rotational symmetry number  1.
 Warning -- assumption of classical behavior for rotation
           may cause significant error
 Rotational temperatures (Kelvin)      0.02754     0.00715     0.00620
 Rotational constants (GHZ):           0.57375     0.14888     0.12926
   39 imaginary frequencies ignored.
 Zero-point vibrational energy     984617.4 (Joules/Mol)
                                  235.32920 (Kcal/Mol)
 Warning -- explicit consideration of  15 degrees of freedom as
           vibrations may cause significant error
 Vibrational temperatures:    204.02   250.15   299.16   352.72   384.24
          (Kelvin)            471.46   563.32   600.08   613.00   662.25
                              671.72   691.17   735.05   812.47   869.36
                              900.97   913.56   934.19   950.80   967.06
                              994.76   999.60  1026.43  1030.00  1037.85
                             1080.54  1089.76  1101.52  1107.16  1113.65
                             1118.23  1144.06  1149.57  1156.23  1170.37
                             1188.94  1214.56  1257.62  1287.73  1309.04
                             1336.54  1405.00  1446.08  1465.77  1475.63
                             1512.65  1549.46  1579.93  1690.05  1698.48
                             1751.73  1759.06  1772.59  1779.99  1785.03
                             1801.37  1807.23  1850.00  1973.29  2046.65
                             2061.04  2107.00  2159.14  2268.67  2341.07
                             2380.06  2407.27  2470.84  6665.77  6676.49
                             6678.64  6688.38  6709.18  6768.08  6772.39
                             6779.90  6784.46  6786.43  6795.33  6830.90
                             6849.42  6863.87  6868.31  6873.20  6875.19
                             6875.89  6881.89  6891.58  6910.26  6913.00

 Zero-point correction=                           0.375021 (Hartree/Particle)
 Thermal correction to Energy=                    0.386044
 Thermal correction to Enthalpy=                  0.386988
 Thermal correction to Gibbs Free Energy=         0.337718
 Sum of electronic and zero-point Energies=           -941.013436
 Sum of electronic and thermal Energies=              -941.002414
 Sum of electronic and thermal Enthalpies=            -941.001470
 Sum of electronic and thermal Free Energies=         -941.050740

                     E (Thermal)             CV                S
                      KCal/Mol        Cal/Mol-Kelvin    Cal/Mol-Kelvin
 Total                  242.246             52.048            103.697
 Electronic               0.000              0.000              0.000
 Translational            0.889              2.981             43.034
 Rotational               0.889              2.981             34.631
 Vibrational            240.469             46.086             26.033
 Vibration     1          0.615              1.911              2.779
 Vibration     2          0.627              1.875              2.393
 Vibration     3          0.641              1.829              2.062
 Vibration     4          0.660              1.771              1.765
 Vibration     5          0.672              1.734              1.615
 Vibration     6          0.711              1.620              1.271
 Vibration     7          0.759              1.488              0.994
 Vibration     8          0.780              1.433              0.902
 Vibration     9          0.788              1.414              0.872
 Vibration    10          0.818              1.338              0.765
 Vibration    11          0.824              1.324              0.746
 Vibration    12          0.837              1.294              0.709
 Vibration    13          0.866              1.226              0.631
 Vibration    14          0.921              1.108              0.515
 Vibration    15          0.963              1.023              0.442

 Normal termination of Gaussian 16 at Mon Mar  6 12:29:03 2023.
