 Gaussian 16, Revision C.01,
 Gaussian 16:  ES64L-G16RevC.01  3-Jul-2019

 ----------------------------------------------------------------------
 #p pop=(regular,nbo,savenbos) freq=noraman def2svp empiricaldispersion
 =gd3bj output=wfx pbe1pbe
 ----------------------------------------------------------------------

 ----------------------------------------
 KUYTII_Complex_0_Ligand_2_ON_Cu_oriented
 ----------------------------------------
 Symbolic Z-matrix:
 Charge = -2 Multiplicity = 1

                         Standard orientation:
 ---------------------------------------------------------------------
 Center     Atomic      Atomic             Coordinates (Angstroms)
 Number     Number       Type             X           Y           Z
 ---------------------------------------------------------------------
      1         16           0       -0.588076    1.379375   -0.143059
      2          8           0       -3.872686   -1.040190   -0.972380
      3          8           0       -3.938788   -2.005454    1.020681
      4          8           0       -0.447822    2.341549   -1.217366
      5          8           0       -0.761168    1.957206    1.181436
      6          7           0       -1.728920    0.369927   -0.521915
      7          6           0       -3.396256   -1.267529    0.195919
      8          6           0       -2.092187   -0.591560    0.542934
      9          1           0       -1.393160   -1.256855    0.635411
     10          1           0       -2.179871   -0.125343    1.389390
     11          6           0        0.947022    0.480113   -0.059376
     12          6           0        1.950136    0.899177    0.804352
     13          1           0        1.806109    1.624785    1.367347
     14          6           0        3.166136    0.234117    0.825572
     15          1           0        3.834500    0.520676    1.406820
     16          6           0        3.405902   -0.852134   -0.004844
     17          6           0        2.386203   -1.269030   -0.842471
     18          1           0        2.520672   -2.005133   -1.395184
     19          6           0        1.158637   -0.616261   -0.877103
     20          1           0        0.485880   -0.913492   -1.444999
     21          6           0        4.733876   -1.574527    0.038401
     22          1           0        5.439341   -0.962865   -0.183927
     23          1           0        4.880108   -1.922821    0.921656
     24          1           0        4.724976   -2.297526   -0.593444
 ---------------------------------------------------------------------

 SCF Done:  E(RPBE1PBE) =  -1100.37605418     A.U. after   20 cycles

 The electronic state is 1-A.
 Alpha  occ. eigenvalues --  -88.89412 -18.87148 -18.87119 -18.79469 -18.77598
 Alpha  occ. eigenvalues --  -14.01438 -10.03817 -10.02659 -10.01292 -10.01116
 Alpha  occ. eigenvalues --  -10.00342 -10.00287  -9.99955  -9.95472  -9.90048
 Alpha  occ. eigenvalues --   -7.86173  -5.80408  -5.80330  -5.80155  -0.81833
 Alpha  occ. eigenvalues --   -0.69396  -0.68584  -0.67921  -0.61439  -0.58206
 Alpha  occ. eigenvalues --   -0.57073  -0.56247  -0.52888  -0.43872  -0.42315
 Alpha  occ. eigenvalues --   -0.40369  -0.35408  -0.29967  -0.29712  -0.29445
 Alpha  occ. eigenvalues --   -0.26274  -0.24435  -0.23577  -0.21106  -0.18983
 Alpha  occ. eigenvalues --   -0.17386  -0.17222  -0.16565  -0.15981  -0.15376
 Alpha  occ. eigenvalues --   -0.14228  -0.09286  -0.06148  -0.05825  -0.05758
 Alpha  occ. eigenvalues --   -0.03923  -0.03400  -0.02358  -0.00453   0.00494
 Alpha  occ. eigenvalues --    0.06093   0.08751   0.09755   0.10381   0.12533
 Alpha virt. eigenvalues --    0.20430   0.21032   0.24650   0.29687   0.30739
 Alpha virt. eigenvalues --    0.31900   0.35006   0.37449   0.37872   0.39568
 Alpha virt. eigenvalues --    0.41060   0.41668   0.42419   0.43757   0.45348

 Mulliken charges:
               1
     1  S    0.851027
     2  O   -0.489782
     3  O   -0.473363
     4  O   -0.574311
     5  O   -0.583637
     6  N   -0.560345
     7  C    0.036344
     8  C    0.265814
     9  H   -0.099976
    10  H   -0.086033
    11  C   -0.091545
    12  C    0.135649
    13  H   -0.142460
    14  C    0.037411
    15  H   -0.161326
    16  C   -0.136705
    17  C    0.042364
    18  H   -0.150489
    19  C    0.152621
    20  H   -0.119801
    21  C    0.274103
    22  H   -0.036214
    23  H   -0.029898
    24  H   -0.059446
 Sum of Mulliken charges =  -2.00000

 Dipole moment (field-independent basis, Debye):
    X=             20.7806    Y=             -0.2397    Z=              1.3344  Tot=             20.8247
 Quadrupole moment (field-independent basis, Debye-Ang):
   XX=           -186.4881   YY=           -127.6721   ZZ=           -111.3884
   XY=            -24.2196   XZ=             -1.1913   YZ=              6.8229

  Exact polarizability:     178.761      -9.735     111.242       8.421       7.472      98.058
 Approx polarizability:     235.884     -12.808     175.320      24.038      16.221     172.952

 Summary of Natural Population Analysis:

                                       Natural Population
                Natural  -----------------------------------------------
    Atom  No    Charge         Core      Valence    Rydberg      Total
 -----------------------------------------------------------------------
      S    1    2.27936      9.99796     3.48190    0.24078    13.72064
      O    2   -0.81333      1.99977     6.80524    0.00832     8.81333
      O    3   -0.82729      1.99974     6.81758    0.00998     8.82729
      O    4   -1.00898      1.99977     7.00072    0.00849     9.00898
      O    5   -1.05050      1.99978     7.04258    0.00815     9.05050
      N    6   -1.00917      1.99942     5.99321    0.01654     8.00917
      C    7    0.79166      1.99952     3.13741    0.07141     5.20834
      C    8   -0.29056      1.99893     4.26971    0.02191     6.29056
      H    9    0.14328      0.00000     0.84995    0.00677     0.85672
      H   10    0.16007      0.00000     0.83069    0.00925     0.83993
      C   11   -0.26988      1.99889     4.23729    0.03369     6.26988
      C   12   -0.15448      1.99899     4.13639    0.01909     6.15448
      H   13    0.17776      0.00000     0.81603    0.00621     0.82224
      C   14   -0.21548      1.99899     4.20078    0.01571     6.21548
      H   15    0.15188      0.00000     0.84441    0.00371     0.84812
      C   16   -0.04818      1.99903     4.03425    0.01490     6.04818
      C   17   -0.20878      1.99898     4.19414    0.01566     6.20878
      H   18    0.15592      0.00000     0.84065    0.00343     0.84408
      C   19   -0.14118      1.99897     4.12228    0.01994     6.14118
      H   20    0.19107      0.00000     0.80195    0.00698     0.80893
      C   21   -0.55947      1.99915     4.55104    0.00927     6.55947
      H   22    0.18140      0.00000     0.81550    0.00310     0.81860
      H   23    0.18391      0.00000     0.81303    0.00306     0.81609
      H   24    0.18096      0.00000     0.81613    0.00291     0.81904
 =======================================================================
   * Total *   -2.00000     37.98789    81.45285    0.55927   120.00000

 ******   15 imaginary frequencies (negative Signs) ******

                      1                      2                      3
                      A                      A                      A
 Frequencies --  -1431.3454             -1406.6065             -1378.5806
 Red. masses --      1.0659                 1.0139                 1.0638
 Frc consts  --      1.2866                 1.1819                 1.1912
 IR Inten    --     34.9276                 4.0964                 0.7724

                      4                      5                      6
                      A                      A                      A
 Frequencies --  -1257.1996             -1237.0506             -1134.1794
 Red. masses --      1.0253                 1.0423                 1.0338
 Frc consts  --      0.9548                 0.9398                 0.7835
 IR Inten    --      0.1605                 0.2999                 1.3060

                      7                      8                      9
                      A                      A                      A
 Frequencies --  -1026.4913             -1004.8101              -942.2902
 Red. masses --      1.0649                 1.0496                 1.0904
 Frc consts  --      0.6611                 0.6244                 0.5704
 IR Inten    --      5.3032                 7.6689                13.3399

                     10                     11                     12
                      A                      A                      A
 Frequencies --   -934.7063              -841.0041              -756.0646
 Red. masses --      1.0776                 1.1043                 1.0385
 Frc consts  --      0.5547                 0.4602                 0.3498
 IR Inten    --     12.7115                 0.3378                12.5632

                     13                     14                     15
                      A                      A                      A
 Frequencies --   -588.0948              -471.4689              -104.1919
 Red. masses --      1.3535                 1.2829                15.0902
 Frc consts  --      0.2758                 0.1680                 0.0965
 IR Inten    --      8.5928                 7.2772                 1.4248

                     16                     17                     18
                      A                      A                      A
 Frequencies --     91.3063               117.6855               145.9228
 Red. masses --      9.7017                11.3838                 9.4864
 Frc consts  --      0.0477                 0.0929                 0.1190
 IR Inten    --      2.3904                 3.7386                 5.0435

                     19                     20                     21
                      A                      A                      A
 Frequencies --    179.2833               204.8579               251.8153
 Red. masses --      8.7623                 8.9506                 7.8498
 Frc consts  --      0.1659                 0.2213                 0.2933
 IR Inten    --      2.1154                 2.6110                 0.7822

                     22                     23                     24
                      A                      A                      A
 Frequencies --    274.6676               284.6516               322.5525
 Red. masses --      1.2481                 6.6948                 9.8910
 Frc consts  --      0.0555                 0.3196                 0.6063
 IR Inten    --      1.0375                 7.9390                 1.1302

                     25                     26                     27
                      A                      A                      A
 Frequencies --    374.7263               405.1178               471.7110
 Red. masses --      8.6721                 8.0926                 7.4513
 Frc consts  --      0.7175                 0.7825                 0.9769
 IR Inten    --      3.3974                 6.0202                 5.0876

                     28                     29                     30
                      A                      A                      A
 Frequencies --    529.1168               542.1763               560.8533
 Red. masses --     11.0804                10.7234                 7.2488
 Frc consts  --      1.8277                 1.8572                 1.3434
 IR Inten    --     32.1455                23.0367                57.7370

                     31                     32                     33
                      A                      A                      A
 Frequencies --    608.1127               632.9619               679.7568
 Red. masses --      9.0904                 7.8571                 5.1809
 Frc consts  --      1.9806                 1.8547                 1.4105
 IR Inten    --     59.6843                14.8968                 0.8992

                     34                     35                     36
                      A                      A                      A
 Frequencies --    686.8082               707.9061               729.7476
 Red. masses --      7.5633                 4.5816                 4.8398
 Frc consts  --      2.1020                 1.3527                 1.5185
 IR Inten    --     25.4335                99.0622                 1.5559

                     37                     38                     39
                      A                      A                      A
 Frequencies --    750.8491               804.7693               867.3318
 Red. masses --     11.1877                 5.9814                 2.5477
 Frc consts  --      3.7162                 2.2824                 1.1292
 IR Inten    --     17.8712                 4.5211                 6.3908

                     40                     41                     42
                      A                      A                      A
 Frequencies --    895.1040               915.8563               958.5161
 Red. masses --      4.2945                 6.8585                 1.8518
 Frc consts  --      2.0273                 3.3895                 1.0024
 IR Inten    --      6.3310                 3.3533                95.6738

                     43                     44                     45
                      A                      A                      A
 Frequencies --    978.5516              1001.4578              1008.4790
 Red. masses --      1.0575                 1.1300                 7.5969
 Frc consts  --      0.5966                 0.6677                 4.5522
 IR Inten    --      7.9909                 7.8337                 1.7237

                     46                     47                     48
                      A                      A                      A
 Frequencies --   1102.6368              1161.4904              1218.8892
 Red. masses --      7.5231                 6.8387                 8.0371
 Frc consts  --      5.3890                 5.4357                 7.0352
 IR Inten    --      6.1664                56.6038                15.8836

                     49                     50                     51
                      A                      A                      A
 Frequencies --   1249.1898              1373.5843              1381.6510
 Red. masses --     14.6016                 8.6506                19.4111
 Frc consts  --     13.4248                 9.6163                21.8322
 IR Inten    --    295.1618                 7.6950               224.2761

                     52                     53                     54
                      A                      A                      A
 Frequencies --   1447.3579              1449.1372              1451.7410
 Red. masses --     11.3475                 9.9680                 8.5256
 Frc consts  --     14.0057                12.3333                10.5866
 IR Inten    --    152.5592               104.7171                16.1788

                     55                     56                     57
                      A                      A                      A
 Frequencies --   1641.7410              1686.5148              1793.0625
 Red. masses --     10.9402                 9.7883                12.8090
 Frc consts  --     17.3735                16.4036                24.2636
 IR Inten    --      4.2581                 1.8637               533.8371

                     58                     59                     60
                      A                      A                      A
 Frequencies --   4401.0905              4461.1107              4523.2797
 Red. masses --      1.0580                 1.0319                 1.1090
 Frc consts  --     12.0747                12.0991                13.3689
 IR Inten    --     45.9376                38.0641                23.0419

                     61                     62                     63
                      A                      A                      A
 Frequencies --   4664.1390              4671.4262              5005.6993
 Red. masses --      1.1065                 1.1068                 1.0881
 Frc consts  --     14.1823                14.2299                16.0643
 IR Inten    --      5.6638                 6.4994                17.6594

                     64                     65                     66
                      A                      A                      A
 Frequencies --   5018.3446              5043.3827              5051.2393
 Red. masses --      1.0883                 1.0896                 1.0899
 Frc consts  --     16.1479                16.3288                16.3844
 IR Inten    --     10.6027                 2.6245                 6.1588

 - Thermochemistry -
 -------------------
 Temperature   298.150 Kelvin.  Pressure   1.00000 Atm.
 Atom     1 has atomic number 16 and mass  31.97207

 Molecular mass:   227.02523 amu.
 Principal axes and moments of inertia in atomic units:
                           1         2         3
     Eigenvalues --  1937.329315898.171296896.73447
           X            0.99976  -0.02205   0.00007
           Y            0.02204   0.99955   0.02049
           Z           -0.00052  -0.02049   0.99979
 This molecule is an asymmetric top.
 Rotational symmetry number  1.
 Warning -- assumption of classical behavior for rotation
           may cause significant error
 Rotational temperatures (Kelvin)      0.04471     0.01468     0.01256
 Rotational constants (GHZ):           0.93156     0.30598     0.26168
   15 imaginary frequencies ignored.
 Zero-point vibrational energy     459242.6 (Joules/Mol)
                                  109.76161 (Kcal/Mol)
 Warning -- explicit consideration of  16 degrees of freedom as
           vibrations may cause significant error
 Vibrational temperatures:    131.37   169.32   209.95   257.95   294.74
          (Kelvin)            362.31   395.19   409.55   464.08   539.15
                              582.87   678.69   761.28   780.07   806.94
                              874.94   910.69   978.02   988.16  1018.52
                             1049.94  1080.30  1157.88  1247.90  1287.86
                             1317.71  1379.09  1407.92  1440.87  1450.98
                             1586.45  1671.13  1753.71  1797.31  1976.28
                             1987.89  2082.43  2084.99  2088.73  2362.10
                             2426.52  2579.82  6332.19  6418.54  6507.99
                             6710.66  6721.14  7202.08  7220.28  7256.30
                             7267.61

 Zero-point correction=                           0.174916 (Hartree/Particle)
 Thermal correction to Energy=                    0.185590
 Thermal correction to Enthalpy=                  0.186534
 Thermal correction to Gibbs Free Energy=         0.137629
 Sum of electronic and zero-point Energies=          -1100.201138
 Sum of electronic and thermal Energies=             -1100.190464
 Sum of electronic and thermal Enthalpies=           -1100.189520
 Sum of electronic and thermal Free Energies=        -1100.238425

                     E (Thermal)             CV                S
                      KCal/Mol        Cal/Mol-Kelvin    Cal/Mol-Kelvin
 Total                  116.460             41.276            102.929
 Electronic               0.000              0.000              0.000
 Translational            0.889              2.981             42.162
 Rotational               0.889              2.981             32.733
 Vibrational            114.682             35.315             28.034
 Vibration     1          0.602              1.955              3.632
 Vibration     2          0.608              1.935              3.138
 Vibration     3          0.617              1.907              2.725
 Vibration     4          0.629              1.868              2.336
 Vibration     5          0.640              1.833              2.089
 Vibration     6          0.664              1.760              1.718
 Vibration     7          0.677              1.720              1.567
 Vibration     8          0.683              1.702              1.506
 Vibration     9          0.708              1.630              1.297
 Vibration    10          0.746              1.524              1.060
 Vibration    11          0.770              1.459              0.944
 Vibration    12          0.829              1.313              0.733
 Vibration    13          0.884              1.186              0.589
 Vibration    14          0.897              1.157              0.561
 Vibration    15          0.917              1.116              0.522
 Vibration    16          0.967              1.015              0.436

 Normal termination of Gaussian 16 at Mon Mar  6 10:40:54 2023.
