 Gaussian 16, Revision C.01,
 Gaussian 16:  ES64L-G16RevC.01  3-Jul-2019

 ----------------------------------------------------------------------
 #p pop=(regular,nbo,savenbos) freq=noraman def2svp empiricaldispersion
 =gd3bj output=wfx pbe1pbe
 ----------------------------------------------------------------------

 ----------------------------------------
 KUZPOK_Complex_1_Ligand_1_ON_Cu_oriented
 ----------------------------------------
 Symbolic Z-matrix:
 Charge = -1 Multiplicity = 1

                         Standard orientation:
 ---------------------------------------------------------------------
 Center     Atomic      Atomic             Coordinates (Angstroms)
 Number     Number       Type             X           Y           Z
 ---------------------------------------------------------------------
      1          8           0       -1.637747    0.796546   -1.487816
      2          8           0       -2.924584    0.036324    0.140552
      3          7           0        0.614808    0.072620   -0.272849
      4          6           0       -1.832062    0.147233   -0.412520
      5          6           0       -0.645579   -0.615409    0.137066
      6          6           0       -0.790859   -0.936998    1.619134
      7          6           0        0.780897    1.327612    0.567682
      8          1           0       -0.797975   -0.020206    2.187838
      9          1           0        0.947384    1.029147    1.591386
     10          1           0       -0.135736    1.898310    0.505017
     11          6           0        1.921635    2.217420    0.133967
     12          1           0        2.850683    1.666939    0.205419
     13          1           0        1.766966    2.536968   -0.882494
     14          1           0        1.968995    3.081472    0.783220
     15          6           0        1.827222   -0.753661   -0.087932
     16          1           0        2.668240   -0.220896   -0.508486
     17          1           0        1.981357   -0.899870    0.967089
     18          6           0        1.750884   -2.111149   -0.753736
     19          1           0        0.919746   -2.666684   -0.338461
     20          1           0        1.606030   -1.986845   -1.815581
     21          1           0        2.668106   -2.651485   -0.572486
     22          1           0        0.039190   -1.551961    1.934812
     23          1           0       -0.644889   -1.567100   -0.371801
     24          1           0       -1.715932   -1.469388    1.780627
 ---------------------------------------------------------------------

 SCF Done:  E(RPBE1PBE) =  -479.503070100     A.U. after   14 cycles

 The electronic state is 1-A.
 Alpha  occ. eigenvalues --  -18.92600 -18.91011 -14.23175 -10.12047 -10.11047
 Alpha  occ. eigenvalues --  -10.10446 -10.09959 -10.08821 -10.08154 -10.06712
 Alpha  occ. eigenvalues --   -0.82404  -0.78101  -0.71558  -0.65576  -0.63651
 Alpha  occ. eigenvalues --   -0.59033  -0.51382  -0.49955  -0.43272  -0.37799
 Alpha  occ. eigenvalues --   -0.35401  -0.34595  -0.33197  -0.30660  -0.28979
 Alpha  occ. eigenvalues --   -0.27584  -0.26301  -0.25956  -0.24934  -0.24337
 Alpha  occ. eigenvalues --   -0.23770  -0.21899  -0.20449  -0.20394  -0.17989
 Alpha  occ. eigenvalues --   -0.16055  -0.07713  -0.03571  -0.03267  -0.00819
 Alpha virt. eigenvalues --    0.18330   0.19673   0.21654   0.23115   0.24641
 Alpha virt. eigenvalues --    0.25750   0.26570   0.27293   0.27581   0.28470
 Alpha virt. eigenvalues --    0.28783   0.30086   0.30739   0.32938   0.33283

 Mulliken charges:
               1
     1  O   -0.459622
     2  O   -0.407386
     3  N   -0.382735
     4  C    0.117470
     5  C   -0.087630
     6  C    0.021256
     7  C    0.061981
     8  H    0.011435
     9  H   -0.021125
    10  H    0.046723
    11  C   -0.033585
    12  H    0.005070
    13  H    0.041729
    14  H    0.002998
    15  C    0.078174
    16  H    0.008643
    17  H   -0.034149
    18  C   -0.041750
    19  H    0.035891
    20  H    0.037529
    21  H   -0.001913
    22  H   -0.029562
    23  H    0.010594
    24  H    0.019962
 Sum of Mulliken charges =  -1.00000

 Dipole moment (field-independent basis, Debye):
    X=              9.0046    Y=             -2.0581    Z=              3.2852  Tot=              9.8036
 Quadrupole moment (field-independent basis, Debye-Ang):
   XX=            -94.2081   YY=            -67.2300   ZZ=            -74.0571
   XY=              3.7409   XZ=             -4.6912   YZ=              4.8865

  Exact polarizability:      95.853       0.739      91.306      -3.122      -2.029      82.460
 Approx polarizability:     126.034       1.037     117.752      -5.687      -7.245     123.042

 Summary of Natural Population Analysis:

                                       Natural Population
                Natural  -----------------------------------------------
    Atom  No    Charge         Core      Valence    Rydberg      Total
 -----------------------------------------------------------------------
      O    1   -0.79554      1.99977     6.78708    0.00869     8.79554
      O    2   -0.78320      1.99973     6.77353    0.00993     8.78320
      N    3   -0.54508      1.99936     5.52969    0.01603     7.54508
      C    4    0.77723      1.99932     3.14831    0.07513     5.22277
      C    5   -0.14828      1.99897     4.12405    0.02526     6.14828
      C    6   -0.65943      1.99924     4.64907    0.01111     6.65943
      C    7   -0.22215      1.99917     4.20514    0.01784     6.22215
      H    8    0.20667      0.00000     0.78997    0.00335     0.79333
      H    9    0.16706      0.00000     0.82629    0.00665     0.83294
      H   10    0.23846      0.00000     0.75714    0.00440     0.76154
      C   11   -0.63637      1.99925     4.63018    0.00695     6.63637
      H   12    0.19665      0.00000     0.80062    0.00273     0.80335
      H   13    0.21928      0.00000     0.77573    0.00498     0.78072
      H   14    0.20552      0.00000     0.79174    0.00274     0.79448
      C   15   -0.21188      1.99918     4.19703    0.01567     6.21188
      H   16    0.19952      0.00000     0.79645    0.00404     0.80048
      H   17    0.16343      0.00000     0.82852    0.00805     0.83657
      C   18   -0.63791      1.99926     4.63141    0.00724     6.63791
      H   19    0.21369      0.00000     0.78365    0.00265     0.78631
      H   20    0.21713      0.00000     0.77818    0.00469     0.78287
      H   21    0.20239      0.00000     0.79491    0.00270     0.79761
      H   22    0.18052      0.00000     0.81575    0.00373     0.81948
      H   23    0.21595      0.00000     0.77945    0.00460     0.78405
      H   24    0.23634      0.00000     0.75753    0.00614     0.76366
 =======================================================================
   * Total *   -1.00000     19.99325    59.75142    0.25533    80.00000

 ******    6 imaginary frequencies (negative Signs) ******

                      1                      2                      3
                      A                      A                      A
 Frequencies --   -368.2303              -345.1554              -334.0930
 Red. masses --      1.0279                 1.0624                 1.0745
 Frc consts  --      0.0821                 0.0746                 0.0707
 IR Inten    --      0.4348                 0.2329                 0.0384

                      4                      5                      6
                      A                      A                      A
 Frequencies --   -190.9240              -155.2908              -114.2317
 Red. masses --      1.7521                 1.6752                10.0921
 Frc consts  --      0.0376                 0.0238                 0.0776
 IR Inten    --      0.8804                 1.4542                 0.2021

                      7                      8                      9
                      A                      A                      A
 Frequencies --     47.7075               162.4758               195.5711
 Red. masses --      3.1296                 3.4566                 2.9378
 Frc consts  --      0.0042                 0.0538                 0.0662
 IR Inten    --      3.4819                 4.6617                 2.2331

                     10                     11                     12
                      A                      A                      A
 Frequencies --    201.3954               264.4966               339.1433
 Red. masses --      2.5815                 2.4787                 3.0796
 Frc consts  --      0.0617                 0.1022                 0.2087
 IR Inten    --      2.2273                 7.3764                 3.0874

                     13                     14                     15
                      A                      A                      A
 Frequencies --    388.2492               432.7335               482.4657
 Red. masses --      3.5605                 2.5948                 3.0970
 Frc consts  --      0.3162                 0.2863                 0.4247
 IR Inten    --      3.4929                 0.4823                 3.8516

                     16                     17                     18
                      A                      A                      A
 Frequencies --    517.0398               625.4969               684.3967
 Red. masses --      3.6490                 3.6560                 1.3287
 Frc consts  --      0.5747                 0.8428                 0.3667
 IR Inten    --      0.7394                18.1215                 1.7727

                     19                     20                     21
                      A                      A                      A
 Frequencies --    701.6228               716.5166               763.9859
 Red. masses --      1.7440                 1.4619                 2.4448
 Frc consts  --      0.5058                 0.4422                 0.8407
 IR Inten    --     10.7988                 2.1853                10.9095

                     22                     23                     24
                      A                      A                      A
 Frequencies --    853.7757               880.4879               894.5644
 Red. masses --      2.2365                 1.7841                 2.9565
 Frc consts  --      0.9605                 0.8149                 1.3940
 IR Inten    --      8.3251                 2.4479                42.2164

                     25                     26                     27
                      A                      A                      A
 Frequencies --    994.0327              1046.2236              1056.5495
 Red. masses --      1.5866                 1.6759                 2.3058
 Frc consts  --      0.9237                 1.0808                 1.5165
 IR Inten    --      5.0039                10.1862                 5.9302

                     28                     29                     30
                      A                      A                      A
 Frequencies --   1082.7072              1106.6257              1116.3214
 Red. masses --      2.6049                 2.5207                 2.1854
 Frc consts  --      1.7991                 1.8188                 1.6046
 IR Inten    --     25.3522                 5.0613                15.1386

                     31                     32                     33
                      A                      A                      A
 Frequencies --   1138.8217              1141.2910              1191.8527
 Red. masses --      2.2922                 2.1902                 2.4682
 Frc consts  --      1.7515                 1.6808                 2.0657
 IR Inten    --     12.0729                19.3029                28.8995

                     34                     35                     36
                      A                      A                      A
 Frequencies --   1238.3825              1259.5037              1263.6239
 Red. masses --      1.2555                 1.6009                 1.2364
 Frc consts  --      1.1344                 1.4963                 1.1632
 IR Inten    --     12.9759                 7.7725                 1.8792

                     37                     38                     39
                      A                      A                      A
 Frequencies --   1281.2613              1287.8127              1298.3553
 Red. masses --      1.3978                 1.3059                 1.4156
 Frc consts  --      1.3520                 1.2760                 1.4060
 IR Inten    --     13.6739                14.1656                 6.4759

                     40                     41                     42
                      A                      A                      A
 Frequencies --   1302.1262              1337.0953              1338.6284
 Red. masses --      1.2660                 1.5882                 1.5741
 Frc consts  --      1.2647                 1.6730                 1.6619
 IR Inten    --      1.7923                21.9913                20.3581

                     43                     44                     45
                      A                      A                      A
 Frequencies --   1407.8531              1413.7527              1419.9738
 Red. masses --      1.0647                 1.1185                 1.0735
 Frc consts  --      1.2434                 1.3172                 1.2753
 IR Inten    --      2.6518                 5.3401                 7.9603

                     46                     47                     48
                      A                      A                      A
 Frequencies --   1425.4465              1428.0322              1432.0875
 Red. masses --      1.0660                 1.1268                 1.0669
 Frc consts  --      1.2762                 1.3539                 1.2892
 IR Inten    --     14.1754                 4.1558                 5.4205

                     49                     50                     51
                      A                      A                      A
 Frequencies --   1448.4793              1451.7753              1473.5973
 Red. masses --      1.0439                 1.0622                 4.6940
 Frc consts  --      1.2905                 1.3190                 6.0055
 IR Inten    --      4.0932                11.6460               183.7051

                     52                     53                     54
                      A                      A                      A
 Frequencies --   1806.7350              3218.5179              3221.6718
 Red. masses --     12.5050                 1.0359                 1.0345
 Frc consts  --     24.0505                 6.3223                 6.3259
 IR Inten    --    414.1588                23.1953                37.3477

                     55                     56                     57
                      A                      A                      A
 Frequencies --   3223.8228              3236.9401              3243.1051
 Red. masses --      1.0348                 1.0583                 1.0549
 Frc consts  --      6.3366                 6.5333                 6.5371
 IR Inten    --     16.1145                33.9628               119.6531

                     58                     59                     60
                      A                      A                      A
 Frequencies --   3293.3118              3312.5281              3317.1041
 Red. masses --      1.0843                 1.1081                 1.1056
 Frc consts  --      6.9291                 7.1640                 7.1676
 IR Inten    --     24.7835                32.4810                31.9314

                     61                     62                     63
                      A                      A                      A
 Frequencies --   3329.1627              3335.1885              3336.4830
 Red. masses --      1.1057                 1.1032                 1.1031
 Frc consts  --      7.2205                 7.2304                 7.2351
 IR Inten    --     24.4125                68.5695                10.2869

                     64                     65                     66
                      A                      A                      A
 Frequencies --   3359.0261              3365.2040              3374.1754
 Red. masses --      1.1059                 1.1057                 1.1041
 Frc consts  --      7.3516                 7.3774                 7.4060
 IR Inten    --     26.4115                15.3318                17.8957

 - Thermochemistry -
 -------------------
 Temperature   298.150 Kelvin.  Pressure   1.00000 Atm.
 Atom     1 has atomic number  8 and mass  15.99491

 Molecular mass:   144.10245 amu.
 Principal axes and moments of inertia in atomic units:
                           1         2         3
     Eigenvalues --  1135.384201818.782692224.00692
           X            0.99956   0.02230  -0.01960
           Y           -0.02177   0.99939   0.02717
           Z            0.02019  -0.02673   0.99944
 This molecule is an asymmetric top.
 Rotational symmetry number  1.
 Warning -- assumption of classical behavior for rotation
           may cause significant error
 Rotational temperatures (Kelvin)      0.07629     0.04762     0.03894
 Rotational constants (GHZ):           1.58954     0.99228     0.81148
    6 imaginary frequencies ignored.
 Zero-point vibrational energy     547335.3 (Joules/Mol)
                                  130.81627 (Kcal/Mol)
 Warning -- explicit consideration of  10 degrees of freedom as
           vibrations may cause significant error
 Vibrational temperatures:     68.64   233.77   281.38   289.76   380.55
          (Kelvin)            487.95   558.60   622.61   694.16   743.90
                              899.95   984.69  1009.48  1030.91  1099.21
                             1228.39  1266.83  1287.08  1430.19  1505.28
                             1520.14  1557.77  1592.19  1606.14  1638.51
                             1642.06  1714.81  1781.76  1812.14  1818.07
                             1843.45  1852.88  1868.04  1873.47  1923.78
                             1925.99  2025.59  2034.07  2043.03  2050.90
                             2054.62  2060.45  2084.04  2088.78  2120.18
                             2599.49  4630.73  4635.27  4638.36  4657.23
                             4666.10  4738.34  4765.99  4772.57  4789.92
                             4798.59  4800.45  4832.89  4841.78  4854.69

 Zero-point correction=                           0.208469 (Hartree/Particle)
 Thermal correction to Energy=                    0.216927
 Thermal correction to Enthalpy=                  0.217871
 Thermal correction to Gibbs Free Energy=         0.174408
 Sum of electronic and zero-point Energies=           -479.294601
 Sum of electronic and thermal Energies=              -479.286143
 Sum of electronic and thermal Enthalpies=            -479.285199
 Sum of electronic and thermal Free Energies=         -479.328662

                     E (Thermal)             CV                S
                      KCal/Mol        Cal/Mol-Kelvin    Cal/Mol-Kelvin
 Total                  136.124             32.853             91.475
 Electronic               0.000              0.000              0.000
 Translational            0.889              2.981             40.807
 Rotational               0.889              2.981             29.908
 Vibrational            134.346             26.892             20.760
 Vibration     1          0.595              1.978              4.910
 Vibration     2          0.623              1.888              2.521
 Vibration     3          0.636              1.846              2.174
 Vibration     4          0.638              1.838              2.120
 Vibration     5          0.671              1.738              1.632
 Vibration     6          0.719              1.597              1.216
 Vibration     7          0.756              1.495              1.007
 Vibration     8          0.794              1.399              0.850
 Vibration     9          0.839              1.289              0.703
 Vibration    10          0.872              1.212              0.617

 Normal termination of Gaussian 16 at Mon Mar  6 10:37:41 2023.
