 Gaussian 16, Revision C.01,
 Gaussian 16:  ES64L-G16RevC.01  3-Jul-2019

 ----------------------------------------------------------------------
 #p pop=(regular,nbo,savenbos) freq=noraman def2svp empiricaldispersion
 =gd3bj output=wfx pbe1pbe
 ----------------------------------------------------------------------

 -----------------------------------------
 LAHNOX_Complex_11_Ligand_0_ON_Cu_oriented
 -----------------------------------------
 Symbolic Z-matrix:
 Charge =  0 Multiplicity = 1

                         Standard orientation:
 ---------------------------------------------------------------------
 Center     Atomic      Atomic             Coordinates (Angstroms)
 Number     Number       Type             X           Y           Z
 ---------------------------------------------------------------------
      1          8           0       -4.230619    0.343240    0.818849
      2          8           0       -3.491934    1.203108   -1.076865
      3          7           0       -2.036634   -1.038415    1.348388
      4          6           0       -3.307023    0.525628   -0.049708
      5          6           0       -1.927477   -0.028795    0.260511
      6          6           0       -1.261158   -0.634728   -0.984272
      7          6           0        0.135965   -1.131334   -0.731194
      8          1           0       -1.940926   -1.880964    0.960197
      9          1           0       -1.369829   -1.388654    1.788250
     10          1           0       -1.746828   -1.589036   -1.485220
     11          1           0       -1.241313    0.117028   -1.511846
     12          1           0        0.227578   -1.907056   -0.166292
     13          1           0        0.597792   -1.546678   -1.527291
     14          7           0        2.443509   -0.542340   -0.097151
     15          7           0        3.274451    1.536105    0.443897
     16          7           0        4.703558   -0.218563    0.044067
     17          6           0        1.037533   -0.085287   -0.163985
     18          6           0        3.435077    0.286764    0.126720
     19          1           0        0.587345    0.394592    0.629816
     20          1           0        1.053629    0.741797   -0.857376
     21          1           0        2.931894   -1.334542   -0.510852
     22          1           0        2.482882    1.676375    0.655175
     23          1           0        3.686802    2.422533    0.505198
     24          1           0        5.542372    0.416928    0.277733
     25          1           0        4.957082   -1.130175   -0.191212
     26          1           0       -1.359739    0.886078    0.575007
 ---------------------------------------------------------------------

 SCF Done:  E(RPBE1PBE) =  -605.097792661     A.U. after   21 cycles

 The electronic state is 1-A.
 Alpha  occ. eigenvalues --  -19.01775 -19.00251 -14.53234 -14.53104 -14.51743
 Alpha  occ. eigenvalues --  -14.29088 -10.48042 -10.32237 -10.23251 -10.21045
 Alpha  occ. eigenvalues --  -10.19855 -10.18419  -1.16372  -1.06021  -1.02072
 Alpha  occ. eigenvalues --   -0.91360  -0.88824  -0.86476  -0.80222  -0.79879
 Alpha  occ. eigenvalues --   -0.76742  -0.72578  -0.69383  -0.67164  -0.62341
 Alpha  occ. eigenvalues --   -0.62228  -0.60165  -0.58028  -0.57437  -0.51768
 Alpha  occ. eigenvalues --   -0.47855  -0.45731  -0.43970  -0.42904  -0.40906
 Alpha  occ. eigenvalues --   -0.39554  -0.37603  -0.36153  -0.35033  -0.32787
 Alpha  occ. eigenvalues --   -0.30641  -0.26888  -0.25454  -0.20244  -0.13001
 Alpha  occ. eigenvalues --   -0.11860  -0.09473
 Alpha virt. eigenvalues --   -0.06960  -0.04618  -0.00531  -0.00497   0.03098
 Alpha virt. eigenvalues --    0.04862   0.06183   0.08578   0.10465   0.10971
 Alpha virt. eigenvalues --    0.13821   0.15419   0.16450   0.17849   0.18375

 Mulliken charges:
               1
     1  O   -0.416002
     2  O   -0.415991
     3  N   -0.032695
     4  C    0.147864
     5  C   -0.173955
     6  C    0.107238
     7  C    0.062325
     8  H    0.019005
     9  H   -0.012953
    10  H    0.058233
    11  H   -0.068338
    12  H   -0.052799
    13  H   -0.028341
    14  N   -0.164314
    15  N    0.073606
    16  N   -0.172260
    17  C    0.078335
    18  C    0.139522
    19  H    0.067474
    20  H    0.043763
    21  H    0.169573
    22  H    0.039058
    23  H    0.161312
    24  H    0.201948
    25  H    0.148762
    26  H    0.019630
 Sum of Mulliken charges =  -0.00000

 Dipole moment (field-independent basis, Debye):
    X=             31.2659    Y=             -2.0043    Z=             -0.1173  Tot=             31.3303
 Quadrupole moment (field-independent basis, Debye-Ang):
   XX=            -82.4229   YY=            -60.2157   ZZ=            -80.4130
   XY=             18.0615   XZ=              4.5558   YZ=              7.9321

  Exact polarizability:     326.986      -2.917      87.565      -3.970       3.000      72.579
 Approx polarizability:     408.957      -7.803     128.933     -22.416       1.316     110.553

 Summary of Natural Population Analysis:

                                       Natural Population
                Natural  -----------------------------------------------
    Atom  No    Charge         Core      Valence    Rydberg      Total
 -----------------------------------------------------------------------
      O    1   -0.74145      1.99977     6.73305    0.00863     8.74145
      O    2   -0.78026      1.99975     6.77070    0.00981     8.78026
      N    3   -0.81330      1.99932     5.78891    0.02507     7.81330
      C    4    0.76736      1.99934     3.15968    0.07361     5.23264
      C    5   -0.15774      1.99901     4.13406    0.02467     6.15774
      C    6   -0.39906      1.99883     4.37917    0.02105     6.39906
      C    7   -0.38741      1.99902     4.37020    0.01819     6.38741
      H    8    0.32389      0.00000     0.66687    0.00923     0.67611
      H    9    0.31239      0.00000     0.67891    0.00869     0.68761
      H   10    0.23604      0.00000     0.75999    0.00397     0.76396
      H   11    0.17790      0.00000     0.80825    0.01384     0.82210
      H   12    0.17817      0.00000     0.81222    0.00962     0.82183
      H   13    0.19779      0.00000     0.79740    0.00482     0.80221
      N   14   -0.60385      1.99908     5.59252    0.01225     7.60385
      N   15   -0.72227      1.99896     5.70980    0.01351     7.72227
      N   16   -0.83579      1.99931     5.82775    0.00873     7.83579
      C   17   -0.22962      1.99906     4.21283    0.01774     6.22962
      C   18    0.74787      1.99919     3.23164    0.02131     5.25213
      H   19    0.23744      0.00000     0.75824    0.00432     0.76256
      H   20    0.21556      0.00000     0.77968    0.00476     0.78444
      H   21    0.42720      0.00000     0.56683    0.00597     0.57280
      H   22    0.34748      0.00000     0.64871    0.00381     0.65252
      H   23    0.44211      0.00000     0.55459    0.00330     0.55789
      H   24    0.44184      0.00000     0.55492    0.00325     0.55816
      H   25    0.41681      0.00000     0.57994    0.00324     0.58319
      H   26    0.20090      0.00000     0.79253    0.00657     0.79910
 =======================================================================
   * Total *   -0.00000     23.99064    69.66940    0.33995    94.00000

 ******   13 imaginary frequencies (negative Signs) ******

                      1                      2                      3
                      A                      A                      A
 Frequencies --  -2202.0568             -1962.3596             -1572.6357
 Red. masses --      1.0570                 1.0568                 1.0613
 Frc consts  --      3.0198                 2.3976                 1.5465
 IR Inten    --    107.9076                92.2994                30.7167

                      4                      5                      6
                      A                      A                      A
 Frequencies --  -1562.6532             -1246.9343             -1134.9822
 Red. masses --      1.0445                 1.0628                 1.1013
 Frc consts  --      1.5027                 0.9736                 0.8359
 IR Inten    --     28.6960                 2.6452                15.1736

                      7                      8                      9
                      A                      A                      A
 Frequencies --  -1013.5580              -925.3577              -808.9493
 Red. masses --      1.0637                 1.1323                 1.1523
 Frc consts  --      0.6438                 0.5712                 0.4443
 IR Inten    --      2.4960                93.8923               352.4012

                     10                     11                     12
                      A                      A                      A
 Frequencies --   -715.4655              -538.0759              -404.9053
 Red. masses --      1.1015                 1.3517                 1.2219
 Frc consts  --      0.3322                 0.2306                 0.1180
 IR Inten    --     89.7610                 0.4792                 6.7726

                     13                     14                     15
                      A                      A                      A
 Frequencies --   -145.3495                16.0429                84.8601
 Red. masses --      2.5839                 7.7407                 6.6707
 Frc consts  --      0.0322                 0.0012                 0.0283
 IR Inten    --     16.8685                 3.7228                 6.2029

                     16                     17                     18
                      A                      A                      A
 Frequencies --     91.5001               144.1528               187.4072
 Red. masses --      4.2418                 5.3922                 3.7193
 Frc consts  --      0.0209                 0.0660                 0.0770
 IR Inten    --      6.1149                 1.5571                17.4143

                     19                     20                     21
                      A                      A                      A
 Frequencies --    264.5544               289.4887               337.4064
 Red. masses --      4.9915                 2.0648                 2.1178
 Frc consts  --      0.2058                 0.1020                 0.1421
 IR Inten    --      5.1702                73.1931                77.7435

                     22                     23                     24
                      A                      A                      A
 Frequencies --    380.9593               451.9559               477.6288
 Red. masses --      6.6545                 4.6953                 4.5145
 Frc consts  --      0.5690                 0.5651                 0.6068
 IR Inten    --      8.2588                 4.5823                 7.9770

                     25                     26                     27
                      A                      A                      A
 Frequencies --    554.7570               584.8043               663.4954
 Red. masses --      3.6391                 3.0998                 3.4418
 Frc consts  --      0.6599                 0.6246                 0.8927
 IR Inten    --      1.9710                 0.7838                 7.8938

                     28                     29                     30
                      A                      A                      A
 Frequencies --    697.6209               738.4018               756.8834
 Red. masses --      4.9744                 4.9227                 1.9321
 Frc consts  --      1.4264                 1.5814                 0.6521
 IR Inten    --      5.4549                19.0617                 4.7090

                     31                     32                     33
                      A                      A                      A
 Frequencies --    796.5309               837.6129               886.0471
 Red. masses --      6.2387                 3.8808                 1.4302
 Frc consts  --      2.3321                 1.6042                 0.6616
 IR Inten    --     44.6692                34.6480                38.3623

                     34                     35                     36
                      A                      A                      A
 Frequencies --    904.4661               969.7859              1002.5738
 Red. masses --      1.3047                 2.4115                 4.7535
 Frc consts  --      0.6289                 1.3363                 2.8151
 IR Inten    --     68.9010                 5.1942                26.7053

                     37                     38                     39
                      A                      A                      A
 Frequencies --   1007.3455              1020.2391              1066.9731
 Red. masses --      2.1489                 1.9801                 2.6867
 Frc consts  --      1.2847                 1.2144                 1.8021
 IR Inten    --      5.3692               145.7965                34.0202

                     40                     41                     42
                      A                      A                      A
 Frequencies --   1086.1011              1109.2703              1143.5486
 Red. masses --      2.2859                 3.0414                 2.7219
 Frc consts  --      1.5887                 2.2050                 2.0971
 IR Inten    --     28.0893               153.6041               109.5705

                     43                     44                     45
                      A                      A                      A
 Frequencies --   1205.5031              1210.2664              1232.3308
 Red. masses --      1.1576                 2.2264                 1.1870
 Frc consts  --      0.9912                 1.9214                 1.0621
 IR Inten    --      5.9582                 5.1672                36.9853

                     46                     47                     48
                      A                      A                      A
 Frequencies --   1247.3870              1279.4024              1304.6224
 Red. masses --      1.3248                 1.4184                 1.5153
 Frc consts  --      1.2145                 1.3679                 1.5196
 IR Inten    --      2.2064                14.9378                 2.8978

                     49                     50                     51
                      A                      A                      A
 Frequencies --   1367.5317              1395.4748              1417.1800
 Red. masses --      1.2592                 6.1468                 1.5117
 Frc consts  --      1.3875                 7.0525                 1.7888
 IR Inten    --     18.8579                18.2584                41.4628

                     52                     53                     54
                      A                      A                      A
 Frequencies --   1427.8998              1459.2039              1517.0089
 Red. masses --      1.4816                 1.0739                 1.0996
 Frc consts  --      1.7798                 1.3472                 1.4909
 IR Inten    --      2.6059                16.1667                15.4773

                     55                     56                     57
                      A                      A                      A
 Frequencies --   1658.0853              1704.1846              1708.3622
 Red. masses --      1.2189                 7.5436                 4.2417
 Frc consts  --      1.9744                12.9081                 7.2938
 IR Inten    --     37.8776               271.6471               568.2444

                     58                     59                     60
                      A                      A                      A
 Frequencies --   1842.9935              2426.3489              2897.5900
 Red. masses --      6.2719                 1.0726                 1.0833
 Frc consts  --     12.5516                 3.7204                 5.3591
 IR Inten    --    289.0084                27.9244                46.8527

                     61                     62                     63
                      A                      A                      A
 Frequencies --   2973.8455              3277.1276              3595.9810
 Red. masses --      1.0727                 1.0796                 1.0755
 Frc consts  --      5.5894                 6.8310                 8.1940
 IR Inten    --    269.9379                15.1994                54.6474

                     64                     65                     66
                      A                      A                      A
 Frequencies --   3806.4922              3997.7498              4083.4652
 Red. masses --      1.0868                 1.0822                 1.0768
 Frc consts  --      9.2776                10.1903                10.5792
 IR Inten    --     34.1383                31.7817               295.2344

                     67                     68                     69
                      A                      A                      A
 Frequencies --   4140.8470              4547.1379              4653.7196
 Red. masses --      1.0798                 1.0842                 1.0666
 Frc consts  --     10.9087                13.2076                13.6094
 IR Inten    --    261.1384                12.9718                 3.4467

                     70                     71                     72
                      A                      A                      A
 Frequencies --   5177.4380              5611.6867              6383.6839
 Red. masses --      1.0869                 1.0732                 1.0743
 Frc consts  --     17.1664                19.9129                25.7939
 IR Inten    --      2.7473                 1.0472                16.2303

 - Thermochemistry -
 -------------------
 Temperature   298.150 Kelvin.  Pressure   1.00000 Atm.
 Atom     1 has atomic number  8 and mass  15.99491

 Molecular mass:   174.11168 amu.
 Principal axes and moments of inertia in atomic units:
                           1         2         3
     Eigenvalues --   787.980425785.565325929.03854
           X            0.99996   0.00854   0.00112
           Y           -0.00861   0.99489   0.10056
           Z           -0.00026  -0.10056   0.99493
 This molecule is an asymmetric top.
 Rotational symmetry number  1.
 Warning -- assumption of classical behavior for rotation
           may cause significant error
 Rotational temperatures (Kelvin)      0.10992     0.01497     0.01461
 Rotational constants (GHZ):           2.29034     0.31194     0.30439
   13 imaginary frequencies ignored.
 Zero-point vibrational energy     592767.4 (Joules/Mol)
                                  141.67480 (Kcal/Mol)
 Warning -- explicit consideration of  13 degrees of freedom as
           vibrations may cause significant error
 Vibrational temperatures:     23.08   122.09   131.65   207.40   269.64
          (Kelvin)            380.63   416.51   485.45   548.12   650.26
                              687.20   798.17   841.40   954.62  1003.72
                             1062.40  1088.99  1146.03  1205.14  1274.82
                             1301.33  1395.31  1442.48  1449.35  1467.90
                             1535.14  1562.66  1595.99  1645.31  1734.45
                             1741.30  1773.05  1794.71  1840.77  1877.06
                             1967.57  2007.78  2039.01  2054.43  2099.47
                             2182.64  2385.61  2451.94  2457.95  2651.66
                             3490.97  4168.99  4278.70  4715.06  5173.81
                             5476.69  5751.87  5875.20  5957.76  6542.32
                             6695.66  7449.18  8073.97  9184.70

 Zero-point correction=                           0.225773 (Hartree/Particle)
 Thermal correction to Energy=                    0.235794
 Thermal correction to Enthalpy=                  0.236738
 Thermal correction to Gibbs Free Energy=         0.187708
 Sum of electronic and zero-point Energies=           -604.872019
 Sum of electronic and thermal Energies=              -604.861998
 Sum of electronic and thermal Enthalpies=            -604.861054
 Sum of electronic and thermal Free Energies=         -604.910084

                     E (Thermal)             CV                S
                      KCal/Mol        Cal/Mol-Kelvin    Cal/Mol-Kelvin
 Total                  147.963             36.909            103.193
 Electronic               0.000              0.000              0.000
 Translational            0.889              2.981             41.371
 Rotational               0.889              2.981             31.669
 Vibrational            146.186             30.947             30.153
 Vibration     1          0.593              1.986              7.072
 Vibration     2          0.601              1.960              3.775
 Vibration     3          0.602              1.955              3.628
 Vibration     4          0.616              1.909              2.748
 Vibration     5          0.632              1.857              2.253
 Vibration     6          0.671              1.738              1.632
 Vibration     7          0.686              1.693              1.477
 Vibration     8          0.718              1.601              1.224
 Vibration     9          0.751              1.511              1.035
 Vibration    10          0.811              1.357              0.790
 Vibration    11          0.834              1.300              0.716
 Vibration    12          0.910              1.129              0.534
 Vibration    13          0.942              1.064              0.477

 Normal termination of Gaussian 16 at Sat Mar  4 11:43:18 2023.
