 Gaussian 16, Revision C.01,
 Gaussian 16:  ES64L-G16RevC.01  3-Jul-2019

 ----------------------------------------------------------------------
 #p pop=(regular,nbo,savenbos) freq=noraman def2svp empiricaldispersion
 =gd3bj output=wfx pbe1pbe
 ----------------------------------------------------------------------

 ----------------------------------------
 LEDMEO_Complex_1_Ligand_1_ON_Cu_oriented
 ----------------------------------------
 Symbolic Z-matrix:
 Charge = -1 Multiplicity = 1

                         Standard orientation:
 ---------------------------------------------------------------------
 Center     Atomic      Atomic             Coordinates (Angstroms)
 Number     Number       Type             X           Y           Z
 ---------------------------------------------------------------------
      1         16           0        5.435017    0.103532   -0.152453
      2          8           0       -3.028584   -1.602054   -0.496584
      3          8           0        6.054635   -0.299641    1.066725
      4          8           0        5.947388   -0.369834   -1.411602
      5          7           0       -0.433632   -0.792318    0.116876
      6          7           0        5.549494    1.711905   -0.234097
      7          6           0       -3.340242   -0.437563   -0.023293
      8          6           0       -2.443232    0.438628    0.531641
      9          1           0       -2.804071    1.218989    0.933885
     10          6           0       -1.070376    0.299399    0.564422
     11          6           0       -0.273573    1.460228    1.124004
     12          1           0        0.437252    1.699928    0.494037
     13          1           0        0.122281    1.200276    1.981988
     14          1           0       -0.867441    2.227901    1.256451
     15          6           0        0.996341   -0.682372    0.057022
     16          6           0        1.596983   -0.314604   -1.129461
     17          1           0        1.068588   -0.214346   -1.912005
     18          6           0        2.963522   -0.088871   -1.200453
     19          1           0        3.367955    0.203437   -2.008622
     20          6           0        3.721044   -0.297262   -0.062189
     21          6           0        3.153036   -0.718229    1.120585
     22          1           0        3.683694   -0.851528    1.896885
     23          6           0        1.781417   -0.940786    1.148676
     24          1           0        1.382004   -1.278341    1.941581
     25          6           0       -4.776448   -0.078524   -0.114742
     26          6           0       -5.745067   -1.087873    0.052458
     27          1           0       -5.474518   -1.988579    0.190921
     28          1           0        5.332617    2.094579    0.504981
     29          1           0        5.126962    2.088004   -0.884425
     30          6           0       -7.086939   -0.774926    0.014844
     31          6           0       -7.484636    0.523005   -0.215757
     32          1           0       -8.411551    0.737548   -0.244080
     33          6           0       -6.545185    1.508626   -0.404014
     34          1           0       -6.824418    2.399982   -0.576590
     35          6           0       -5.183738    1.207154   -0.343122
     36          1           0       -4.539547    1.897163   -0.457945
     37          1           0       -7.736070   -1.452588    0.150698
 ---------------------------------------------------------------------

 SCF Done:  E(RPBE1PBE) =  -1349.78645040     A.U. after   19 cycles

 The electronic state is 1-A.
 Alpha  occ. eigenvalues --  -89.13325 -19.10095 -19.09315 -18.99165 -14.30909
 Alpha  occ. eigenvalues --  -14.21673 -10.15233 -10.15056 -10.13744 -10.13678
 Alpha  occ. eigenvalues --  -10.13205 -10.12833 -10.11690 -10.11589 -10.11537
 Alpha  occ. eigenvalues --  -10.11443 -10.11367 -10.11352 -10.10830 -10.10720
 Alpha  occ. eigenvalues --  -10.07805 -10.03388  -8.10328  -6.04544  -6.04480
 Alpha  occ. eigenvalues --   -6.04284  -1.06217  -0.93325  -0.89622  -0.82958
 Alpha  occ. eigenvalues --   -0.80998  -0.77260  -0.76902  -0.69077  -0.68548
 Alpha  occ. eigenvalues --   -0.67522  -0.66548  -0.64402  -0.61012  -0.59016
 Alpha  occ. eigenvalues --   -0.55461  -0.54209  -0.53214  -0.52754  -0.51793
 Alpha  occ. eigenvalues --   -0.49411  -0.47862  -0.44629  -0.42462  -0.40762
 Alpha  occ. eigenvalues --   -0.39442  -0.39145  -0.38677  -0.36353  -0.36200
 Alpha  occ. eigenvalues --   -0.35828  -0.35314  -0.34572  -0.34261  -0.33938
 Alpha  occ. eigenvalues --   -0.33457  -0.30022  -0.29577  -0.28713  -0.28478
 Alpha  occ. eigenvalues --   -0.27555  -0.26850  -0.26731  -0.25332  -0.24986
 Alpha  occ. eigenvalues --   -0.24137  -0.22431  -0.22351  -0.22159  -0.22121
 Alpha  occ. eigenvalues --   -0.18616  -0.17561  -0.16799  -0.16117  -0.14049
 Alpha  occ. eigenvalues --   -0.11101  -0.06756  -0.05230
 Alpha virt. eigenvalues --    0.08465   0.08859   0.09367   0.10449   0.15254
 Alpha virt. eigenvalues --    0.15733   0.19056   0.19848   0.20422   0.21094
 Alpha virt. eigenvalues --    0.21530   0.22022   0.22447   0.23655   0.23900

 Mulliken charges:
               1
     1  S    0.798441
     2  O   -0.387397
     3  O   -0.472018
     4  O   -0.484583
     5  N   -0.220356
     6  N   -0.057910
     7  C    0.183803
     8  C   -0.076177
     9  H   -0.138556
    10  C   -0.158735
    11  C    0.284857
    12  H   -0.023894
    13  H   -0.022275
    14  H   -0.049107
    15  C    0.037438
    16  C    0.109811
    17  H   -0.102880
    18  C    0.078590
    19  H   -0.095723
    20  C   -0.111874
    21  C    0.081637
    22  H   -0.095275
    23  C    0.084231
    24  H   -0.104754
    25  C    0.006380
    26  C    0.099053
    27  H   -0.101819
    28  H    0.048676
    29  H    0.046077
    30  C    0.064993
    31  C    0.064951
    32  H   -0.101832
    33  C    0.068278
    34  H   -0.103057
    35  C    0.060359
    36  H   -0.107765
    37  H   -0.101586
 Sum of Mulliken charges =  -1.00000

 Dipole moment (field-independent basis, Debye):
    X=              1.1936    Y=              7.0087    Z=              1.4780  Tot=              7.2616
 Quadrupole moment (field-independent basis, Debye-Ang):
   XX=           -241.1109   YY=           -137.4295   ZZ=           -139.4682
   XY=              6.7250   XZ=              0.0372   YZ=             -4.7990

  Exact polarizability:     388.620       4.000     156.737       4.201      -4.664     135.095
 Approx polarizability:     449.400       9.806     272.741       7.012      -8.066     234.252

 Summary of Natural Population Analysis:

                                       Natural Population
                Natural  -----------------------------------------------
    Atom  No    Charge         Core      Valence    Rydberg      Total
 -----------------------------------------------------------------------
      S    1    2.30326      9.99826     3.46210    0.23638    13.69674
      O    2   -0.67068      1.99979     6.66293    0.00796     8.67068
      O    3   -0.96398      1.99976     6.95549    0.00873     8.96398
      O    4   -0.95989      1.99977     6.95131    0.00881     8.95989
      N    5   -0.56855      1.99920     5.55171    0.01765     7.56855
      N    6   -0.95652      1.99927     5.92813    0.02911     7.95652
      C    7    0.44406      1.99890     3.51525    0.04179     5.55594
      C    8   -0.47696      1.99883     4.45543    0.02271     6.47696
      H    9    0.16883      0.00000     0.82756    0.00362     0.83117
      C   10    0.29066      1.99906     3.68447    0.02581     5.70934
      C   11   -0.61079      1.99915     4.60249    0.00915     6.61079
      H   12    0.19816      0.00000     0.79910    0.00274     0.80184
      H   13    0.19912      0.00000     0.79819    0.00269     0.80088
      H   14    0.19118      0.00000     0.80605    0.00277     0.80882
      C   15    0.20634      1.99884     3.77005    0.02476     5.79366
      C   16   -0.19698      1.99893     4.18030    0.01775     6.19698
      H   17    0.19172      0.00000     0.80424    0.00404     0.80828
      C   18   -0.17861      1.99900     4.16178    0.01782     6.17861
      H   19    0.18555      0.00000     0.81048    0.00397     0.81445
      C   20   -0.36771      1.99881     4.34422    0.02468     6.36771
      C   21   -0.16568      1.99899     4.14851    0.01818     6.16568
      H   22    0.19425      0.00000     0.80220    0.00354     0.80575
      C   23   -0.21443      1.99892     4.19767    0.01785     6.21443
      H   24    0.18974      0.00000     0.80634    0.00392     0.81026
      C   25   -0.06511      1.99892     4.04684    0.01934     6.06511
      C   26   -0.14337      1.99904     4.12680    0.01754     6.14337
      H   27    0.18872      0.00000     0.80541    0.00587     0.81128
      H   28    0.33852      0.00000     0.65721    0.00427     0.66148
      H   29    0.34092      0.00000     0.65520    0.00388     0.65908
      C   30   -0.19411      1.99909     4.18077    0.01424     6.19411
      C   31   -0.20922      1.99911     4.19569    0.01443     6.20922
      H   32    0.16705      0.00000     0.82967    0.00328     0.83295
      C   33   -0.18759      1.99911     4.17395    0.01452     6.18759
      H   34    0.16659      0.00000     0.83019    0.00323     0.83341
      C   35   -0.18459      1.99899     4.17129    0.01432     6.18459
      H   36    0.18221      0.00000     0.81411    0.00368     0.81779
      H   37    0.16788      0.00000     0.82892    0.00319     0.83212
 =======================================================================
   * Total *   -1.00000     51.97974   113.34206    0.67820   166.00000

 ******   28 imaginary frequencies (negative Signs) ******

                      1                      2                      3
                      A                      A                      A
 Frequencies --  -1931.7845             -1842.5602             -1564.1035
 Red. masses --      1.0272                 1.1254                 1.0223
 Frc consts  --      2.2585                 2.2512                 1.4736
 IR Inten    --     38.7912               534.3992                 0.0964

                      4                      5                      6
                      A                      A                      A
 Frequencies --  -1276.7644             -1243.4333             -1237.1466
 Red. masses --      1.0812                 1.0442                 1.0560
 Frc consts  --      1.0384                 0.9512                 0.9523
 IR Inten    --     69.9808                18.1798                22.4418

                      7                      8                      9
                      A                      A                      A
 Frequencies --  -1234.2325             -1189.1621             -1160.1394
 Red. masses --      1.0432                 1.0477                 1.0876
 Frc consts  --      0.9363                 0.8729                 0.8625
 IR Inten    --     37.2042                 2.1217                 0.0208

                     10                     11                     12
                      A                      A                      A
 Frequencies --  -1100.9613             -1040.6199             -1034.6746
 Red. masses --      1.0244                 1.0171                 1.0136
 Frc consts  --      0.7316                 0.6489                 0.6393
 IR Inten    --      0.9450                 0.1871                 1.6586

                     13                     14                     15
                      A                      A                      A
 Frequencies --  -1024.2187              -957.2664              -850.6401
 Red. masses --      1.0333                 1.0336                 1.0897
 Frc consts  --      0.6386                 0.5580                 0.4646
 IR Inten    --      1.6764                 1.3940                 3.1675

                     16                     17                     18
                      A                      A                      A
 Frequencies --   -799.1573              -678.7063              -668.7766
 Red. masses --      1.0479                 1.1269                 1.1959
 Frc consts  --      0.3943                 0.3059                 0.3151
 IR Inten    --      0.2371                 3.3031                 2.2062

                     19                     20                     21
                      A                      A                      A
 Frequencies --   -658.1267              -636.1139              -618.5948
 Red. masses --      1.1817                 1.0425                 1.2062
 Frc consts  --      0.3016                 0.2485                 0.2719
 IR Inten    --      1.7667                18.9326                 0.5662

                     22                     23                     24
                      A                      A                      A
 Frequencies --   -610.5865              -512.3182              -475.7175
 Red. masses --      1.2080                 1.2414                 1.2436
 Frc consts  --      0.2653                 0.1920                 0.1658
 IR Inten    --      4.4585                48.5454                10.5423

                     25                     26                     27
                      A                      A                      A
 Frequencies --   -445.6082              -405.0415              -357.2002
 Red. masses --      1.3364                 1.0383                 1.0561
 Frc consts  --      0.1563                 0.1004                 0.0794
 IR Inten    --      6.7413                17.4216                27.5885

                     28                     29                     30
                      A                      A                      A
 Frequencies --    -66.7768                54.4640                91.5600
 Red. masses --     11.7178                 7.9347                 6.3966
 Frc consts  --      0.0308                 0.0139                 0.0316
 IR Inten    --      2.9723                 0.5628                 2.0956

                     31                     32                     33
                      A                      A                      A
 Frequencies --     96.7619               142.2011               143.8583
 Red. masses --      8.3027                 8.8070                 8.6265
 Frc consts  --      0.0458                 0.1049                 0.1052
 IR Inten    --      3.9585                 0.6160                 1.2474

                     34                     35                     36
                      A                      A                      A
 Frequencies --    172.1658               189.7777               239.0093
 Red. masses --      8.4262                 9.5651                 7.5996
 Frc consts  --      0.1472                 0.2030                 0.2558
 IR Inten    --      7.3527                 1.0056                 4.5426

                     37                     38                     39
                      A                      A                      A
 Frequencies --    256.9706               276.7621               278.0964
 Red. masses --      6.4530                 6.9666                10.4093
 Frc consts  --      0.2511                 0.3144                 0.4743
 IR Inten    --      3.1239                 2.3944                 2.7583

                     40                     41                     42
                      A                      A                      A
 Frequencies --    334.7660               351.5424               391.2601
 Red. masses --      9.7086                 5.8071                 9.6553
 Frc consts  --      0.6410                 0.4228                 0.8709
 IR Inten    --      1.7717                 0.8834                 1.8231

                     43                     44                     45
                      A                      A                      A
 Frequencies --    412.2696               425.7792               501.9770
 Red. masses --      8.1481                 8.8273                 4.3111
 Frc consts  --      0.8160                 0.9429                 0.6400
 IR Inten    --      2.8270                24.3814                 7.2536

                     46                     47                     48
                      A                      A                      A
 Frequencies --    513.0309               534.3189               548.8480
 Red. masses --     10.8737                10.9366                10.7568
 Frc consts  --      1.6862                 1.8396                 1.9091
 IR Inten    --     25.6305                 0.0962                 0.6027

                     49                     50                     51
                      A                      A                      A
 Frequencies --    571.6707               585.1503               628.9974
 Red. masses --      8.7883                 8.6423                 5.5658
 Frc consts  --      1.6922                 1.7435                 1.2974
 IR Inten    --      4.5934                 2.9821               342.0855

                     52                     53                     54
                      A                      A                      A
 Frequencies --    630.0876               644.6815               670.4033
 Red. masses --      8.6021                 8.8911                 4.5555
 Frc consts  --      2.0121                 2.1772                 1.2063
 IR Inten    --      6.6362                 9.4180                67.3749

                     55                     56                     57
                      A                      A                      A
 Frequencies --    680.5554               719.5408               724.6007
 Red. masses --      1.1995                 6.2558                 8.2208
 Frc consts  --      0.3273                 1.9083                 2.5431
 IR Inten    --     14.2663                13.1761                 9.8527

                     58                     59                     60
                      A                      A                      A
 Frequencies --    756.6309               773.3279               779.2499
 Red. masses --      5.6098                 3.9101                 4.1915
 Frc consts  --      1.8922                 1.3777                 1.4996
 IR Inten    --      3.0983                 1.2727                 3.5520

                     61                     62                     63
                      A                      A                      A
 Frequencies --    795.2403               809.3732               832.5194
 Red. masses --      5.2508                 5.6177                 7.6593
 Frc consts  --      1.9564                 2.1682                 3.1277
 IR Inten    --     41.9672                13.4157                 3.6665

                     64                     65                     66
                      A                      A                      A
 Frequencies --    853.9985               883.7816               917.8433
 Red. masses --     10.3414                 4.7817                 5.7634
 Frc consts  --      4.4437                 2.2005                 2.8607
 IR Inten    --      2.4169                54.7802                45.0701

                     67                     68                     69
                      A                      A                      A
 Frequencies --    967.9671              1006.3994              1048.7406
 Red. masses --      8.5484                 7.7965                 6.2693
 Frc consts  --      4.7191                 4.6526                 4.0626
 IR Inten    --    266.6984                 4.3478                 2.8798

                     70                     71                     72
                      A                      A                      A
 Frequencies --   1077.6074              1108.1345              1128.1327
 Red. masses --      1.1055                 7.6869                 1.0723
 Frc consts  --      0.7564                 5.5615                 0.8041
 IR Inten    --      8.5525                13.1860                 6.5744

                     73                     74                     75
                      A                      A                      A
 Frequencies --   1160.6831              1198.2801              1274.0690
 Red. masses --      6.6367                 8.0582                17.5731
 Frc consts  --      5.2678                 6.8172                16.8067
 IR Inten    --     22.0067               469.6289               385.8295

                     76                     77                     78
                      A                      A                      A
 Frequencies --   1332.5401              1380.6740              1381.3948
 Red. masses --      8.7543                 8.3319                 8.6910
 Frc consts  --      9.1587                 9.3578                 9.7714
 IR Inten    --     48.6314                27.0198                 6.0831

                     79                     80                     81
                      A                      A                      A
 Frequencies --   1413.5175              1423.6779              1449.2462
 Red. masses --      9.8263                 9.4235                10.0545
 Frc consts  --     11.5676                11.2535                12.4422
 IR Inten    --    119.3879                10.3918               301.9313

                     82                     83                     84
                      A                      A                      A
 Frequencies --   1491.7168              1498.1809              1515.7071
 Red. masses --     17.8435                 9.2072                 9.7381
 Frc consts  --     23.3940                12.1760                13.1812
 IR Inten    --    186.0951                17.8441                35.9658

                     85                     86                     87
                      A                      A                      A
 Frequencies --   1588.0044              1622.5914              1655.1174
 Red. masses --     10.1919                10.8893                10.5383
 Frc consts  --     15.1429                16.8916                17.0089
 IR Inten    --   1020.4838               238.9469                76.2369

                     88                     89                     90
                      A                      A                      A
 Frequencies --   1707.5903              1713.8446              1734.7298
 Red. masses --     11.4477                10.5067                10.3317
 Frc consts  --     19.6668                18.1828                18.3184
 IR Inten    --   1008.3567                 0.5159                 8.3829

                     91                     92                     93
                      A                      A                      A
 Frequencies --   4236.7384              4426.7503              4430.7599
 Red. masses --      1.0321                 1.1064                 1.1064
 Frc consts  --     10.9148                12.7736                12.7974
 IR Inten    --     11.0660                 8.5787                 3.9768

                     94                     95                     96
                      A                      A                      A
 Frequencies --   4736.1152              4753.6265              4758.0764
 Red. masses --      1.0879                 1.0886                 1.0879
 Frc consts  --     14.3776                14.4936                14.5116
 IR Inten    --      2.5458                 3.4466                 3.2352

                     97                     98                     99
                      A                      A                      A
 Frequencies --   4768.8375              4769.2752              4769.5299
 Red. masses --      1.0886                 1.0883                 1.0913
 Frc consts  --     14.5862                14.5846                14.6265
 IR Inten    --      1.4048                 0.0790                 9.7561

                    100                    101                    102
                      A                      A                      A
 Frequencies --   4770.3761              4781.3011              4782.2317
 Red. masses --      1.0883                 1.0909                 1.0914
 Frc consts  --     14.5911                14.6934                14.7063
 IR Inten    --      0.1874                 1.1818                 0.6465

                    103                    104                    105
                      A                      A                      A
 Frequencies --   4790.4698              5768.4520              5925.3486
 Red. masses --      1.0911                 1.0504                 1.0962
 Frc consts  --     14.7531                20.5938                22.6770
 IR Inten    --     10.3063                53.2307                44.9798

 - Thermochemistry -
 -------------------
 Temperature   298.150 Kelvin.  Pressure   1.00000 Atm.
 Atom     1 has atomic number 16 and mass  31.97207

 Molecular mass:   315.08034 amu.
 Principal axes and moments of inertia in atomic units:
                           1         2         3
     Eigenvalues --  1527.29884********************
           X            1.00000   0.00054   0.00022
           Y           -0.00054   0.99997  -0.00725
           Z           -0.00023   0.00725   0.99997
 This molecule is an asymmetric top.
 Rotational symmetry number  1.
 Warning -- assumption of classical behavior for rotation
           may cause significant error
 Rotational temperatures (Kelvin)      0.05671     0.00365     0.00360
 Rotational constants (GHZ):           1.18166     0.07611     0.07510
   28 imaginary frequencies ignored.
 Zero-point vibrational energy     745031.3 (Joules/Mol)
                                  178.06676 (Kcal/Mol)
 Warning -- explicit consideration of  22 degrees of freedom as
           vibrations may cause significant error
 Vibrational temperatures:     78.36   131.73   139.22   204.60   206.98
          (Kelvin)            247.71   273.05   343.88   369.72   398.20
                              400.12   481.65   505.79   562.94   593.16
                              612.60   722.23   738.14   768.77   789.67
                              822.51   841.90   904.99   906.56   927.55
                              964.56   979.17  1035.26  1042.54  1088.62
                             1112.65  1121.17  1144.17  1164.51  1197.81
                             1228.71  1271.56  1320.57  1392.69  1447.98
                             1508.90  1550.44  1594.36  1623.13  1669.96
                             1724.06  1833.10  1917.23  1986.48  1987.52
                             2033.74  2048.35  2085.14  2146.25  2155.55
                             2180.76  2284.78  2334.55  2381.34  2456.84
                             2465.84  2495.89  6095.72  6369.11  6374.88
                             6814.21  6839.41  6845.81  6861.29  6861.92
                             6862.29  6863.51  6879.23  6880.56  6892.42
                             8299.52  8525.26

 Zero-point correction=                           0.283767 (Hartree/Particle)
 Thermal correction to Energy=                    0.297945
 Thermal correction to Enthalpy=                  0.298889
 Thermal correction to Gibbs Free Energy=         0.241734
 Sum of electronic and zero-point Energies=          -1349.502683
 Sum of electronic and thermal Energies=             -1349.488506
 Sum of electronic and thermal Enthalpies=           -1349.487561
 Sum of electronic and thermal Free Energies=        -1349.544716

                     E (Thermal)             CV                S
                      KCal/Mol        Cal/Mol-Kelvin    Cal/Mol-Kelvin
 Total                  186.963             56.250            120.292
 Electronic               0.000              0.000              0.000
 Translational            0.889              2.981             43.139
 Rotational               0.889              2.981             35.119
 Vibrational            185.186             50.289             42.033
 Vibration     1          0.596              1.976              4.648
 Vibration     2          0.602              1.955              3.626
 Vibration     3          0.603              1.951              3.519
 Vibration     4          0.616              1.911              2.774
 Vibration     5          0.616              1.909              2.752
 Vibration     6          0.626              1.877              2.412
 Vibration     7          0.633              1.854              2.230
 Vibration     8          0.657              1.781              1.810
 Vibration     9          0.667              1.751              1.682
 Vibration    10          0.678              1.716              1.554
 Vibration    11          0.679              1.714              1.545
 Vibration    12          0.716              1.606              1.237
 Vibration    13          0.728              1.572              1.159
 Vibration    14          0.759              1.489              0.995
 Vibration    15          0.776              1.444              0.919
 Vibration    16          0.788              1.414              0.873
 Vibration    17          0.857              1.246              0.653
 Vibration    18          0.868              1.221              0.626
 Vibration    19          0.889              1.174              0.578
 Vibration    20          0.904              1.142              0.547
 Vibration    21          0.928              1.093              0.501
 Vibration    22          0.942              1.063              0.476

 Normal termination of Gaussian 16 at Mon Mar  6 11:23:32 2023.
