 Gaussian 16, Revision C.01,
 Gaussian 16:  ES64L-G16RevC.01  3-Jul-2019

 ----------------------------------------------------------------------
 #p pop=(regular,nbo,savenbos) freq=noraman def2svp empiricaldispersion
 =gd3bj output=wfx pbe1pbe
 ----------------------------------------------------------------------

 ----------------------------------------
 LEHCEH_Complex_1_Ligand_0_ON_Cu_oriented
 ----------------------------------------
 Symbolic Z-matrix:
 Charge = -1 Multiplicity = 1

                         Standard orientation:
 ---------------------------------------------------------------------
 Center     Atomic      Atomic             Coordinates (Angstroms)
 Number     Number       Type             X           Y           Z
 ---------------------------------------------------------------------
      1          7           0       -2.481049    0.455507   -0.246757
      2          6           0        0.901480   -0.860181   -0.492468
      3          1           0        0.621206   -1.691016   -0.802102
      4          6           0       -0.044090    0.111449   -0.247216
      5          6           0        4.547190   -1.416815   -0.260642
      6          1           0        5.172335   -2.092222   -0.395250
      7          6           0        3.239588   -1.658671   -0.484342
      8          1           0        2.970529   -2.502940   -0.767355
      9          6           0        2.271997   -0.640577   -0.292744
     10          6           0       -1.435124   -0.240103   -0.463804
     11          1           0       -1.583380   -1.090420   -0.807628
     12          6           0       -4.683205    0.710823   -1.331719
     13          1           0       -5.019805    1.406118   -0.763039
     14          1           0       -5.417348    0.201625   -1.683290
     15          1           0       -4.188913    1.100162   -2.056521
     16          6           0       -3.773522   -0.201169   -0.530795
     17          1           0       -3.588499   -0.990272   -1.082191
     18          6           0       -4.434854   -0.689157    0.759954
     19          1           0       -4.579794    0.076998    1.338014
     20          1           0       -5.305328   -1.055387    0.540027
     21          6           0       -3.663248   -1.727790    1.534185
     22          1           0       -3.526206   -2.501285    0.981763
     23          1           0       -4.158396   -1.977007    2.316609
     24          1           0       -2.812725   -1.366502    1.794164
     25          8           0       -0.495046    2.323442    0.571635
     26          6           0        0.367253    1.387807    0.239967
     27          6           0        1.720620    1.632175    0.379035
     28          1           0        2.000487    2.481179    0.635495
     29          6           0        4.079190    0.855921    0.361445
     30          1           0        4.378485    1.694048    0.634277
     31          6           0        4.971002   -0.149264    0.174378
     32          1           0        5.873497    0.003251    0.337271
     33          6           0        2.684319    0.640148    0.143761
 ---------------------------------------------------------------------

 SCF Done:  E(RPBE1PBE) =  -709.614481306     A.U. after   19 cycles

 The electronic state is 1-A.
 Alpha  occ. eigenvalues --  -18.94785 -14.22685 -10.12257 -10.11002 -10.09772
 Alpha  occ. eigenvalues --  -10.09155 -10.08785 -10.08474 -10.08391 -10.08349
 Alpha  occ. eigenvalues --  -10.07829 -10.07818 -10.07694 -10.07553 -10.07498
 Alpha  occ. eigenvalues --  -10.07341 -10.03242  -0.80571  -0.78257  -0.74891
 Alpha  occ. eigenvalues --   -0.71489  -0.69159  -0.66889  -0.65495  -0.62262
 Alpha  occ. eigenvalues --   -0.58176  -0.57509  -0.53716  -0.50134  -0.48899
 Alpha  occ. eigenvalues --   -0.48534  -0.46269  -0.41746  -0.40143  -0.38573
 Alpha  occ. eigenvalues --   -0.37209  -0.36085  -0.35554  -0.34542  -0.33732
 Alpha  occ. eigenvalues --   -0.31481  -0.31140  -0.30656  -0.29586  -0.28673
 Alpha  occ. eigenvalues --   -0.27185  -0.26663  -0.26444  -0.25395  -0.24158
 Alpha  occ. eigenvalues --   -0.23048  -0.22514  -0.20840  -0.18543  -0.17789
 Alpha  occ. eigenvalues --   -0.16076  -0.13558  -0.11305  -0.09180  -0.03615
 Alpha  occ. eigenvalues --   -0.02304
 Alpha virt. eigenvalues --    0.09156   0.14603   0.17029   0.18049   0.19460
 Alpha virt. eigenvalues --    0.20363   0.21315   0.21781   0.23355   0.24793
 Alpha virt. eigenvalues --    0.25447   0.26601   0.26800   0.27316   0.27932

 Mulliken charges:
               1
     1  N   -0.181895
     2  C    0.035047
     3  H   -0.170605
     4  C   -0.055632
     5  C    0.058704
     6  H   -0.139583
     7  C    0.086723
     8  H   -0.152930
     9  C    0.025509
    10  C    0.125697
    11  H   -0.152736
    12  C    0.241604
    13  H   -0.034181
    14  H   -0.056492
    15  H   -0.032677
    16  C   -0.023150
    17  H   -0.074507
    18  C    0.043767
    19  H   -0.024762
    20  H   -0.050279
    21  C    0.154973
    22  H   -0.045286
    23  H   -0.045442
    24  H    0.004588
    25  O   -0.443304
    26  C    0.186946
    27  C   -0.037711
    28  H   -0.186024
    29  C    0.070220
    30  H   -0.146940
    31  C    0.092450
    32  H   -0.133949
    33  C    0.061857
 Sum of Mulliken charges =  -1.00000

 Dipole moment (field-independent basis, Debye):
    X=             -2.2420    Y=             -6.0707    Z=             -1.3405  Tot=              6.6088
 Quadrupole moment (field-independent basis, Debye-Ang):
   XX=           -129.3675   YY=           -117.2287   ZZ=           -106.1583
   XY=              7.9392   XZ=              1.9359   YZ=             -1.6041

  Exact polarizability:     309.969     -21.639     155.925       6.843      14.284      98.119
 Approx polarizability:     449.943     -69.057     277.993       2.542      39.933     147.466

 Summary of Natural Population Analysis:

                                       Natural Population
                Natural  -----------------------------------------------
    Atom  No    Charge         Core      Valence    Rydberg      Total
 -----------------------------------------------------------------------
      N    1   -0.47703      1.99931     5.45731    0.02041     7.47703
      C    2   -0.14738      1.99898     4.13174    0.01666     6.14738
      H    3    0.15629      0.00000     0.83934    0.00437     0.84371
      C    4   -0.15267      1.99890     4.13505    0.01873     6.15267
      C    5   -0.25141      1.99910     4.23576    0.01656     6.25141
      H    6    0.15564      0.00000     0.84101    0.00335     0.84436
      C    7   -0.15147      1.99905     4.13654    0.01588     6.15147
      H    8    0.15760      0.00000     0.83891    0.00349     0.84240
      C    9   -0.11277      1.99895     4.09820    0.01561     6.11277
      C   10    0.13865      1.99901     3.83322    0.02912     5.86135
      H   11    0.09811      0.00000     0.89290    0.00899     0.90189
      C   12   -0.54504      1.99914     4.53534    0.01057     6.54504
      H   13    0.18179      0.00000     0.81426    0.00396     0.81821
      H   14    0.17165      0.00000     0.82546    0.00289     0.82835
      H   15    0.19237      0.00000     0.80409    0.00354     0.80763
      C   16    0.01016      1.99898     3.97221    0.01864     5.98984
      H   17    0.13782      0.00000     0.85245    0.00973     0.86218
      C   18   -0.35839      1.99903     4.34625    0.01312     6.35839
      H   19    0.18237      0.00000     0.81163    0.00600     0.81763
      H   20    0.16926      0.00000     0.82654    0.00420     0.83074
      C   21   -0.54055      1.99918     4.53362    0.00775     6.54055
      H   22    0.17143      0.00000     0.82516    0.00341     0.82857
      H   23    0.17638      0.00000     0.82100    0.00262     0.82362
      H   24    0.19531      0.00000     0.80126    0.00343     0.80469
      O   25   -0.72850      1.99980     6.72105    0.00764     8.72850
      C   26    0.39345      1.99882     3.56867    0.03907     5.60655
      C   27   -0.28550      1.99891     4.26485    0.02174     6.28550
      H   28    0.16918      0.00000     0.82520    0.00562     0.83082
      C   29   -0.17758      1.99905     4.16179    0.01674     6.17758
      H   30    0.16056      0.00000     0.83607    0.00337     0.83944
      C   31   -0.19444      1.99911     4.18033    0.01500     6.19444
      H   32    0.15408      0.00000     0.84261    0.00331     0.84592
      C   33   -0.04937      1.99898     4.03458    0.01581     6.04937
 =======================================================================
   * Total *   -1.00000     33.98430    87.64439    0.37131   122.00000

 ******   25 imaginary frequencies (negative Signs) ******

                      1                      2                      3
                      A                      A                      A
 Frequencies --  -1475.5432             -1406.8507             -1403.2323
 Red. masses --      1.0824                 1.0448                 1.0440
 Frc consts  --      1.3885                 1.2184                 1.2112
 IR Inten    --     60.2765                 2.5587                12.1476

                      4                      5                      6
                      A                      A                      A
 Frequencies --  -1397.4504             -1391.4377             -1385.3088
 Red. masses --      1.0158                 1.0184                 1.0575
 Frc consts  --      1.1688                 1.1617                 1.1957
 IR Inten    --      6.5044                 7.1874                18.1294

                      7                      8                      9
                      A                      A                      A
 Frequencies --  -1347.8705             -1276.9492             -1212.6899
 Red. masses --      1.0726                 1.0287                 1.0422
 Frc consts  --      1.1481                 0.9883                 0.9031
 IR Inten    --      4.2320                 0.1464                 0.1512

                     10                     11                     12
                      A                      A                      A
 Frequencies --  -1124.0325             -1028.7306             -1023.2102
 Red. masses --      1.0417                 1.0582                 1.0535
 Frc consts  --      0.7755                 0.6598                 0.6499
 IR Inten    --     13.8637                 7.5471                25.9174

                     13                     14                     15
                      A                      A                      A
 Frequencies --  -1003.6111              -996.7060              -956.2242
 Red. masses --      1.0432                 1.0510                 1.0769
 Frc consts  --      0.6191                 0.6152                 0.5801
 IR Inten    --      1.6018                 0.7989                 2.0855

                     16                     17                     18
                      A                      A                      A
 Frequencies --   -933.0821              -901.4609              -851.5797
 Red. masses --      1.0846                 1.1214                 1.0583
 Frc consts  --      0.5563                 0.5369                 0.4522
 IR Inten    --      0.7437                 3.1728                 6.0275

                     19                     20                     21
                      A                      A                      A
 Frequencies --   -796.2107              -757.6387              -686.0277
 Red. masses --      1.0706                 1.0833                 1.1632
 Frc consts  --      0.3999                 0.3664                 0.3225
 IR Inten    --     10.7675                 6.8720                 3.3292

                     22                     23                     24
                      A                      A                      A
 Frequencies --   -486.5585              -393.0172              -300.0427
 Red. masses --      1.3661                 1.4812                 2.4672
 Frc consts  --      0.1906                 0.1348                 0.1309
 IR Inten    --      1.7214                 0.6714                 1.1735

                     25                     26                     27
                      A                      A                      A
 Frequencies --   -189.2049               115.3631               156.1511
 Red. masses --      3.1479                 8.2843                 9.4981
 Frc consts  --      0.0664                 0.0650                 0.1365
 IR Inten    --      1.5558                 0.3646                 2.1891

                     28                     29                     30
                      A                      A                      A
 Frequencies --    222.4656               247.5877               293.9847
 Red. masses --      7.3993                 5.0520                 6.1753
 Frc consts  --      0.2158                 0.1825                 0.3145
 IR Inten    --      0.2615                 1.2433                 0.5659

                     31                     32                     33
                      A                      A                      A
 Frequencies --    323.6714               346.3074               358.5957
 Red. masses --      5.9777                 1.2119                 5.7094
 Frc consts  --      0.3690                 0.0856                 0.4326
 IR Inten    --      0.6365                23.7805                 3.6348

                     34                     35                     36
                      A                      A                      A
 Frequencies --    395.0972               450.7044               463.8592
 Red. masses --      1.1920                 7.3491                 7.1996
 Frc consts  --      0.1096                 0.8796                 0.9127
 IR Inten    --      9.0342                 0.2242                 5.6313

                     37                     38                     39
                      A                      A                      A
 Frequencies --    512.7139               515.7346               563.8700
 Red. masses --      4.7324                 5.9075                 3.6590
 Frc consts  --      0.7330                 0.9258                 0.6854
 IR Inten    --      1.9840                 3.5964                 5.8590

                     40                     41                     42
                      A                      A                      A
 Frequencies --    585.4984               615.9345               625.5688
 Red. masses --      9.3041                 4.7030                 9.5048
 Frc consts  --      1.8792                 1.0512                 2.1915
 IR Inten    --      0.4947                 7.1091                 0.3330

                     43                     44                     45
                      A                      A                      A
 Frequencies --    639.3629               649.9839               692.7082
 Red. masses --     10.7948                 3.2406                 5.3702
 Frc consts  --      2.5999                 0.8066                 1.5182
 IR Inten    --      1.5571                25.5138                 5.7801

                     46                     47                     48
                      A                      A                      A
 Frequencies --    724.6217               752.4592               781.8829
 Red. masses --      2.6748                 2.6344                 2.8896
 Frc consts  --      0.8275                 0.8788                 1.0408
 IR Inten    --     36.1222                 4.2434                 8.7831

                     49                     50                     51
                      A                      A                      A
 Frequencies --    801.5797               805.4827               820.2535
 Red. masses --      8.3433                 6.4221                 1.9459
 Frc consts  --      3.1585                 2.4549                 0.7714
 IR Inten    --      9.4193                27.4744                12.9824

                     52                     53                     54
                      A                      A                      A
 Frequencies --    825.0543               852.8056               885.4491
 Red. masses --      4.0707                10.6073                 2.4805
 Frc consts  --      1.6326                 4.5452                 1.1458
 IR Inten    --      8.7953                 4.7700                11.1467

                     55                     56                     57
                      A                      A                      A
 Frequencies --    942.1863               960.4545               969.0512
 Red. masses --      1.3933                 1.9655                 3.9392
 Frc consts  --      0.7287                 1.0683                 2.1795
 IR Inten    --      1.4494                 5.9453                 2.2174

                     58                     59                     60
                      A                      A                      A
 Frequencies --    973.7965              1012.3417              1029.3632
 Red. masses --      1.2282                 1.9472                 1.1564
 Frc consts  --      0.6862                 1.1758                 0.7220
 IR Inten    --     18.4779                33.8888                 2.9650

                     61                     62                     63
                      A                      A                      A
 Frequencies --   1047.0288              1122.6630              1131.6144
 Red. masses --      1.1862                 4.3362                 3.0545
 Frc consts  --      0.7661                 3.2200                 2.3046
 IR Inten    --      7.9793                13.9080                26.1636

                     64                     65                     66
                      A                      A                      A
 Frequencies --   1177.5297              1223.4846              1259.1091
 Red. masses --      3.0479                 7.1115                 8.0393
 Frc consts  --      2.4899                 6.2720                 7.5092
 IR Inten    --     42.2934                 9.7653                 2.2257

                     67                     68                     69
                      A                      A                      A
 Frequencies --   1289.2703              1335.3043              1431.6502
 Red. masses --      8.8221                 8.3311                10.8492
 Frc consts  --      8.6399                 8.7521                13.1015
 IR Inten    --     78.5817                28.6464               113.5049

                     70                     71                     72
                      A                      A                      A
 Frequencies --   1464.9178              1482.7313              1559.2163
 Red. masses --     10.5926                10.4051                 9.4825
 Frc consts  --     13.3930                13.4779                13.5827
 IR Inten    --    197.6320                42.4227                24.6765

                     73                     74                     75
                      A                      A                      A
 Frequencies --   1571.8258              1666.9021              1677.6097
 Red. masses --      9.5528                11.0853                10.2949
 Frc consts  --     13.9055                18.1476                17.0709
 IR Inten    --     96.6539               175.4546                52.2180

                     76                     77                     78
                      A                      A                      A
 Frequencies --   1696.1940              1737.8729              4323.6813
 Red. masses --     10.5786                10.6439                 1.0861
 Frc consts  --     17.9320                18.9404                11.9621
 IR Inten    --    269.0219               300.3704                63.3917

                     79                     80                     81
                      A                      A                      A
 Frequencies --   4419.6696              4470.1244              4471.4881
 Red. masses --      1.0607                 1.0325                 1.0323
 Frc consts  --     12.2072                12.1554                12.1608
 IR Inten    --     37.3776                15.8392                20.8064

                     82                     83                     84
                      A                      A                      A
 Frequencies --   4537.3327              4672.6492              4673.6724
 Red. masses --      1.1074                 1.1064                 1.1063
 Frc consts  --     13.4321                14.2333                14.2375
 IR Inten    --     15.6971                 7.9339                10.8620

                     85                     86                     87
                      A                      A                      A
 Frequencies --   4683.4994              4686.3374              5000.1271
 Red. masses --      1.1068                 1.1069                 1.0863
 Frc consts  --     14.3046                14.3228                16.0010
 IR Inten    --      5.7374                 4.2928                40.9184

                     88                     89                     90
                      A                      A                      A
 Frequencies --   5012.1563              5016.4364              5021.7822
 Red. masses --      1.0861                 1.0875                 1.0884
 Frc consts  --     16.0753                16.1243                16.1715
 IR Inten    --      0.1697                 0.6320                 8.0558

                     91                     92                     93
                      A                      A                      A
 Frequencies --   5028.1180              5030.5509              5036.4415
 Red. masses --      1.0903                 1.0888                 1.0919
 Frc consts  --     16.2404                16.2339                16.3192
 IR Inten    --     13.9265                 1.3201                15.3345

 - Thermochemistry -
 -------------------
 Temperature   298.150 Kelvin.  Pressure   1.00000 Atm.
 Atom     1 has atomic number  7 and mass  14.00307

 Molecular mass:   226.12319 amu.
 Principal axes and moments of inertia in atomic units:
                           1         2         3
     Eigenvalues --  1514.613258516.511039282.08621
           X            0.99998   0.00630   0.00023
           Y           -0.00630   0.99972  -0.02276
           Z           -0.00037   0.02276   0.99974
 This molecule is an asymmetric top.
 Rotational symmetry number  1.
 Warning -- assumption of classical behavior for rotation
           may cause significant error
 Rotational temperatures (Kelvin)      0.05719     0.01017     0.00933
 Rotational constants (GHZ):           1.19155     0.21191     0.19443
   25 imaginary frequencies ignored.
 Zero-point vibrational energy     728950.1 (Joules/Mol)
                                  174.22325 (Kcal/Mol)
 Warning -- explicit consideration of  16 degrees of freedom as
           vibrations may cause significant error
 Vibrational temperatures:    165.98   224.67   320.08   356.22   422.98
          (Kelvin)            465.69   498.26   515.94   568.46   648.46
                              667.39   737.68   742.03   811.28   842.40
                              886.19   900.05   919.90   935.18   996.65
                             1042.57  1082.62  1124.96  1153.29  1158.91
                             1180.16  1187.07  1227.00  1273.96  1355.60
                             1381.88  1394.25  1401.08  1456.53  1481.02
                             1506.44  1615.26  1628.14  1694.20  1760.32
                             1811.58  1854.97  1921.21  2059.83  2107.69
                             2133.32  2243.36  2261.51  2398.30  2413.71
                             2440.44  2500.41  6220.81  6358.92  6431.51
                             6433.47  6528.21  6722.90  6724.37  6738.51
                             6742.59  7194.07  7211.38  7217.53  7225.22
                             7234.34  7237.84  7246.32

 Zero-point correction=                           0.277642 (Hartree/Particle)
 Thermal correction to Energy=                    0.287777
 Thermal correction to Enthalpy=                  0.288721
 Thermal correction to Gibbs Free Energy=         0.241501
 Sum of electronic and zero-point Energies=           -709.336839
 Sum of electronic and thermal Energies=              -709.326704
 Sum of electronic and thermal Enthalpies=            -709.325760
 Sum of electronic and thermal Free Energies=         -709.372981

                     E (Thermal)             CV                S
                      KCal/Mol        Cal/Mol-Kelvin    Cal/Mol-Kelvin
 Total                  180.583             43.732             99.384
 Electronic               0.000              0.000              0.000
 Translational            0.889              2.981             42.150
 Rotational               0.889              2.981             33.148
 Vibrational            178.805             37.771             24.086
 Vibration     1          0.608              1.937              3.177
 Vibration     2          0.620              1.896              2.596
 Vibration     3          0.648              1.807              1.939
 Vibration     4          0.661              1.767              1.748
 Vibration     5          0.689              1.685              1.451
 Vibration     6          0.708              1.628              1.291
 Vibration     7          0.724              1.583              1.183
 Vibration     8          0.733              1.558              1.128
 Vibration     9          0.762              1.481              0.981
 Vibration    10          0.809              1.359              0.794
 Vibration    11          0.821              1.330              0.755
 Vibration    12          0.868              1.222              0.627
 Vibration    13          0.871              1.215              0.620
 Vibration    14          0.920              1.109              0.516
 Vibration    15          0.943              1.063              0.475
 Vibration    16          0.976              0.998              0.423

 Normal termination of Gaussian 16 at Mon Mar  6 11:03:31 2023.
