 Gaussian 16, Revision C.01,
 Gaussian 16:  ES64L-G16RevC.01  3-Jul-2019

 ----------------------------------------------------------------------
 #p pop=(regular,nbo,savenbos) freq=noraman def2svp empiricaldispersion
 =gd3bj output=wfx pbe1pbe
 ----------------------------------------------------------------------

 ----------------------------------------
 LERQIK_Complex_0_Ligand_0_NN_Cu_oriented
 ----------------------------------------
 Symbolic Z-matrix:
 Charge =  0 Multiplicity = 1

                         Standard orientation:
 ---------------------------------------------------------------------
 Center     Atomic      Atomic             Coordinates (Angstroms)
 Number     Number       Type             X           Y           Z
 ---------------------------------------------------------------------
      1          7           0        2.333672   -0.478400   -0.661887
      2          7           0        1.158850    1.099951    0.372412
      3          6           0        3.208763    0.572298   -0.413185
      4          6           0        1.122373   -0.099344   -0.180505
      5          6           0        2.466838    1.556391    0.222796
      6          6           0        3.037309    2.781154    0.551509
      7          1           0        2.543223    3.454649    0.960945
      8          6           0        4.365270    2.947961    0.242548
      9          1           0        4.780404    3.752946    0.453991
     10          6           0        5.106590    1.946538   -0.376260
     11          1           0        6.006546    2.097456   -0.557713
     12          6           0        4.551867    0.746974   -0.725219
     13          1           0        5.046697    0.083589   -1.148027
     14          6           0        2.726239   -1.743931   -1.261623
     15          1           0        1.996443   -2.074659   -1.809090
     16          6           0        3.068596   -2.746877   -0.270279
     17          1           0        2.287500   -2.976729    0.237261
     18          1           0        3.405572   -3.530598   -0.710746
     19          1           0        3.741155   -2.398171    0.319414
     20          8           0       -0.133962   -1.906501    0.858851
     21          6           0       -0.124842   -0.938898   -0.190807
     22          6           0       -2.010571   -1.822981   -1.522350
     23          1           0       -2.337741   -1.805628   -2.435679
     24          6           0       -0.468272   -1.745600   -1.465338
     25          1           0       -0.085024   -2.634942   -1.418008
     26          1           0       -0.121222   -1.298938   -2.253229
     27          7           0       -2.360527   -0.600157   -0.797685
     28          7           0       -1.674214    1.039397    0.531967
     29          6           0       -3.473330    0.174707   -0.583359
     30          6           0       -1.346428   -0.063295   -0.111096
     31          6           0       -3.043214    1.214326    0.259923
     32          6           0       -3.942784    2.151731    0.711140
     33          1           0       -3.671494    2.852553    1.259096
     34          6           0       -5.266869    2.019109    0.324483
     35          1           0       -5.896900    2.632871    0.627431
     36          6           0       -5.669575    0.982730   -0.510237
     37          1           0       -6.565842    0.924697   -0.753084
     38          6           0       -4.798723    0.045899   -0.988816
     39          1           0       -5.075748   -0.639534   -1.553503
     40          6           0        0.130371   -1.430940    2.177031
     41          1           0        1.040596   -1.100290    2.236413
     42          1           0       -0.475025   -0.704452    2.397254
     43          6           0       -0.067290   -2.572377    3.125494
     44          1           0       -0.984258   -2.855898    3.098428
     45          1           0        3.489122   -1.596402   -1.841388
     46          1           0       -2.345759   -2.615083   -1.073121
     47          1           0        0.154810   -2.291541    4.015190
     48          1           0        0.500282   -3.302886    2.868620
 ---------------------------------------------------------------------

 SCF Done:  E(RPBE1PBE) =  -1105.31949145     A.U. after   15 cycles

 The electronic state is 1-A.
 Alpha  occ. eigenvalues --  -19.22057 -14.44886 -14.44194 -14.35964 -14.35480
 Alpha  occ. eigenvalues --  -10.31822 -10.29437 -10.28211 -10.27112 -10.26082
 Alpha  occ. eigenvalues --  -10.26046 -10.25873 -10.24193 -10.24157 -10.23918
 Alpha  occ. eigenvalues --  -10.23777 -10.22099 -10.21557 -10.21261 -10.21173
 Alpha  occ. eigenvalues --  -10.20788 -10.20670 -10.20654 -10.20444 -10.19462
 Alpha  occ. eigenvalues --  -10.17928  -1.07183  -1.04546  -1.03965  -0.91584
 Alpha  occ. eigenvalues --   -0.91217  -0.87402  -0.86501  -0.84245  -0.82286
 Alpha  occ. eigenvalues --   -0.79719  -0.77572  -0.77129  -0.76090  -0.75521
 Alpha  occ. eigenvalues --   -0.73441  -0.70078  -0.68420  -0.66578  -0.66028
 Alpha  occ. eigenvalues --   -0.63423  -0.62481  -0.61866  -0.60528  -0.58428
 Alpha  occ. eigenvalues --   -0.56426  -0.55775  -0.55133  -0.53316  -0.52565
 Alpha  occ. eigenvalues --   -0.52116  -0.51515  -0.50864  -0.49257  -0.49095
 Alpha  occ. eigenvalues --   -0.47527  -0.46974  -0.46810  -0.46032  -0.45763
 Alpha  occ. eigenvalues --   -0.44997  -0.44386  -0.43536  -0.42963  -0.42828
 Alpha  occ. eigenvalues --   -0.41953  -0.41705  -0.41020  -0.39879  -0.39096
 Alpha  occ. eigenvalues --   -0.38769  -0.38226  -0.37883  -0.37655  -0.37179
 Alpha  occ. eigenvalues --   -0.35433  -0.34903  -0.33661  -0.30794  -0.30349
 Alpha  occ. eigenvalues --   -0.29059  -0.27908  -0.24483  -0.24243  -0.23707
 Alpha  occ. eigenvalues --   -0.23260  -0.22594
 Alpha virt. eigenvalues --   -0.02257  -0.00448   0.02526   0.03008   0.04851
 Alpha virt. eigenvalues --    0.06267   0.07511   0.08172   0.09281   0.10299
 Alpha virt. eigenvalues --    0.11368   0.11552   0.12121   0.12516   0.13220

 Mulliken charges:
               1
     1  N   -0.325343
     2  N   -0.160874
     3  C    0.154531
     4  C    0.119391
     5  C    0.069085
     6  C    0.054939
     7  H   -0.115033
     8  C    0.103964
     9  H   -0.094740
    10  C    0.111483
    11  H   -0.095782
    12  C    0.020466
    13  H   -0.136248
    14  C    0.225100
    15  H   -0.034313
    16  C    0.147439
    17  H   -0.012346
    18  H   -0.015431
    19  H   -0.013426
    20  O   -0.433372
    21  C   -0.110236
    22  C    0.416047
    23  H   -0.013739
    24  C    0.130244
    25  H   -0.007701
    26  H    0.002546
    27  N   -0.360141
    28  N   -0.166468
    29  C    0.149863
    30  C    0.193733
    31  C    0.084118
    32  C    0.030891
    33  H   -0.116191
    34  C    0.100154
    35  H   -0.096071
    36  C    0.105919
    37  H   -0.096048
    38  C    0.023243
    39  H   -0.131558
    40  C    0.260125
    41  H   -0.018686
    42  H   -0.009408
    43  C    0.136202
    44  H   -0.014290
    45  H   -0.014419
    46  H   -0.009505
    47  H   -0.016461
    48  H   -0.021654
 Sum of Mulliken charges =  -0.00000

 Dipole moment (field-independent basis, Debye):
    X=              1.6373    Y=             -4.9136    Z=             -2.7966  Tot=              5.8860
 Quadrupole moment (field-independent basis, Debye-Ang):
   XX=           -136.9448   YY=           -143.8708   ZZ=           -143.4987
   XY=             -0.6683   XZ=              0.3998   YZ=              7.4000

  Exact polarizability:     307.661       0.227     226.270      -1.458      27.875     157.606
 Approx polarizability:     413.759      -0.159     360.249      -4.158      69.997     248.492

 Summary of Natural Population Analysis:

                                       Natural Population
                Natural  -----------------------------------------------
    Atom  No    Charge         Core      Valence    Rydberg      Total
 -----------------------------------------------------------------------
      N    1   -0.43574      1.99896     5.42542    0.01135     7.43574
      N    2   -0.50298      1.99930     5.48847    0.01521     7.50298
      C    3    0.14414      1.99885     3.83637    0.02064     5.85586
      C    4    0.42016      1.99902     3.54085    0.03997     5.57984
      C    5    0.13224      1.99882     3.84442    0.02452     5.86776
      C    6   -0.15530      1.99902     4.14114    0.01514     6.15530
      H    7    0.18488      0.00000     0.81185    0.00326     0.81512
      C    8   -0.18495      1.99911     4.17147    0.01437     6.18495
      H    9    0.17026      0.00000     0.82678    0.00296     0.82974
      C   10   -0.16982      1.99911     4.15614    0.01457     6.16982
      H   11    0.17025      0.00000     0.82673    0.00302     0.82975
      C   12   -0.21185      1.99903     4.19891    0.01390     6.21185
      H   13    0.17584      0.00000     0.82125    0.00291     0.82416
      C   14   -0.12178      1.99907     4.10798    0.01472     6.12178
      H   15    0.18233      0.00000     0.81356    0.00410     0.81767
      C   16   -0.54512      1.99916     4.53916    0.00680     6.54512
      H   17    0.18978      0.00000     0.80435    0.00586     0.81022
      H   18    0.19110      0.00000     0.80638    0.00252     0.80890
      H   19    0.19001      0.00000     0.80740    0.00259     0.80999
      O   20   -0.62592      1.99971     6.61352    0.01270     8.62592
      C   21    0.22026      1.99872     3.75505    0.02597     5.77974
      C   22   -0.10835      1.99913     4.09376    0.01547     6.10835
      H   23    0.18744      0.00000     0.80960    0.00296     0.81256
      C   24   -0.36787      1.99901     4.35423    0.01463     6.36787
      H   25    0.20776      0.00000     0.78849    0.00375     0.79224
      H   26    0.20101      0.00000     0.79589    0.00310     0.79899
      N   27   -0.43852      1.99888     5.42842    0.01122     7.43852
      N   28   -0.50875      1.99928     5.49443    0.01504     7.50875
      C   29    0.14502      1.99887     3.83424    0.02187     5.85498
      C   30    0.43940      1.99903     3.51792    0.04364     5.56060
      C   31    0.13503      1.99884     3.84091    0.02523     5.86497
      C   32   -0.16541      1.99900     4.15129    0.01513     6.16541
      H   33    0.18349      0.00000     0.81308    0.00343     0.81651
      C   34   -0.18474      1.99912     4.17119    0.01443     6.18474
      H   35    0.16958      0.00000     0.82751    0.00292     0.83042
      C   36   -0.17522      1.99911     4.16167    0.01444     6.17522
      H   37    0.16924      0.00000     0.82770    0.00306     0.83076
      C   38   -0.20827      1.99904     4.19513    0.01410     6.20827
      H   39    0.17701      0.00000     0.82017    0.00282     0.82299
      C   40    0.02862      1.99894     3.95660    0.01584     5.97138
      H   41    0.15059      0.00000     0.84449    0.00492     0.84941
      H   42    0.16561      0.00000     0.82898    0.00540     0.83439
      C   43   -0.54977      1.99915     4.54388    0.00675     6.54977
      H   44    0.18509      0.00000     0.81119    0.00372     0.81491
      H   45    0.18643      0.00000     0.80959    0.00398     0.81357
      H   46    0.18520      0.00000     0.81081    0.00399     0.81480
      H   47    0.19051      0.00000     0.80725    0.00224     0.80949
      H   48    0.18207      0.00000     0.81427    0.00366     0.81793
 =======================================================================
   * Total *   -0.00000     51.97526   131.48990    0.53484   184.00000

 ******   34 imaginary frequencies (negative Signs) ******

                      1                      2                      3
                      A                      A                      A
 Frequencies --  -1459.3301             -1457.3218             -1390.6376
 Red. masses --      1.0776                 1.0781                 1.0088
 Frc consts  --      1.3521                 1.3490                 1.1494
 IR Inten    --     72.1862                64.2593                 0.1107

                      4                      5                      6
                      A                      A                      A
 Frequencies --  -1376.8771             -1370.4767             -1365.0366
 Red. masses --      1.0090                 1.0428                 1.0516
 Frc consts  --      1.1270                 1.1539                 1.1545
 IR Inten    --      0.2827                 0.3322                 0.3429

                      7                      8                      9
                      A                      A                      A
 Frequencies --  -1275.5646             -1273.0738             -1189.4203
 Red. masses --      1.0275                 1.0274                 1.0372
 Frc consts  --      0.9850                 0.9811                 0.8645
 IR Inten    --      0.3684                 0.1451                 0.0127

                     10                     11                     12
                      A                      A                      A
 Frequencies --  -1187.1898             -1078.2440             -1060.7303
 Red. masses --      1.0361                 1.0301                 1.0376
 Frc consts  --      0.8604                 0.7056                 0.6878
 IR Inten    --      0.0023                 3.0550                11.3387

                     13                     14                     15
                      A                      A                      A
 Frequencies --  -1058.6175             -1029.3602             -1015.8741
 Red. masses --      1.0422                 1.0550                 1.0396
 Frc consts  --      0.6881                 0.6586                 0.6321
 IR Inten    --      3.3921                 2.8243                 1.7765

                     16                     17                     18
                      A                      A                      A
 Frequencies --   -987.6575              -975.2895              -960.1073
 Red. masses --      1.0567                 1.0722                 1.0648
 Frc consts  --      0.6073                 0.6009                 0.5783
 IR Inten    --      7.2291                 0.0745                 1.4853

                     19                     20                     21
                      A                      A                      A
 Frequencies --   -949.9551              -948.5120              -926.6605
 Red. masses --      1.0746                 1.0716                 1.1007
 Frc consts  --      0.5713                 0.5680                 0.5569
 IR Inten    --      1.5771                 1.8807                 2.0126

                     22                     23                     24
                      A                      A                      A
 Frequencies --   -923.6608              -804.8134              -804.0979
 Red. masses --      1.1033                 1.0857                 1.0895
 Frc consts  --      0.5546                 0.4143                 0.4151
 IR Inten    --      1.2223                15.7347                13.7585

                     25                     26                     27
                      A                      A                      A
 Frequencies --   -738.7052              -730.6701              -579.2952
 Red. masses --      1.0758                 1.1074                 1.3315
 Frc consts  --      0.3459                 0.3483                 0.2633
 IR Inten    --     12.8561                 1.8363                 0.8568

                     28                     29                     30
                      A                      A                      A
 Frequencies --   -437.4937              -426.8192              -352.0848
 Red. masses --      1.4342                 1.9041                 2.0620
 Frc consts  --      0.1617                 0.2044                 0.1506
 IR Inten    --      0.5747                11.3295                 0.1364

                     31                     32                     33
                      A                      A                      A
 Frequencies --   -288.3502              -279.8892              -251.6505
 Red. masses --      1.4541                 2.4082                 1.6725
 Frc consts  --      0.0712                 0.1112                 0.0624
 IR Inten    --      1.5654                 0.1629                 1.9266

                     34                     35                     36
                      A                      A                      A
 Frequencies --   -193.4999                76.5421               105.9937
 Red. masses --      1.8849                 7.6532                 7.5352
 Frc consts  --      0.0416                 0.0264                 0.0499
 IR Inten    --      2.2257                 0.2410                 1.0738

                     37                     38                     39
                      A                      A                      A
 Frequencies --    142.8354               190.7291               203.5357
 Red. masses --      5.4438                 7.3002                 7.6408
 Frc consts  --      0.0654                 0.1565                 0.1865
 IR Inten    --      0.3901                 0.4682                 3.3113

                     40                     41                     42
                      A                      A                      A
 Frequencies --    253.1086               274.5845               283.1817
 Red. masses --      5.8106                 7.5600                 7.5889
 Frc consts  --      0.2193                 0.3358                 0.3586
 IR Inten    --      0.7469                 0.9822                 1.6129

                     43                     44                     45
                      A                      A                      A
 Frequencies --    295.8437               322.0027               376.7560
 Red. masses --      6.0219                 7.0483                 7.4190
 Frc consts  --      0.3105                 0.4306                 0.6205
 IR Inten    --      0.4133                 2.9680                 2.7266

                     46                     47                     48
                      A                      A                      A
 Frequencies --    394.0455               424.0727               444.0960
 Red. masses --      6.3751                 1.3581                 2.5410
 Frc consts  --      0.5832                 0.1439                 0.2953
 IR Inten    --      7.1214                 9.3722                 6.7575

                     49                     50                     51
                      A                      A                      A
 Frequencies --    462.1984               485.6469               561.1521
 Red. masses --      4.7013                 5.0081                 2.1878
 Frc consts  --      0.5917                 0.6959                 0.4059
 IR Inten    --      1.5208                 5.3381                 8.4583

                     52                     53                     54
                      A                      A                      A
 Frequencies --    562.8689               570.4358               591.2573
 Red. masses --      2.8640                 3.9135                 4.6070
 Frc consts  --      0.5346                 0.7503                 0.9489
 IR Inten    --      7.7014                 5.0635                 0.6047

                     55                     56                     57
                      A                      A                      A
 Frequencies --    612.4541               638.7441               642.7547
 Red. masses --      4.2982                 5.7089                 5.8830
 Frc consts  --      0.9499                 1.3723                 1.4320
 IR Inten    --      0.1027                 1.1245                 2.4998

                     58                     59                     60
                      A                      A                      A
 Frequencies --    646.6801               675.3870               684.2654
 Red. masses --      4.8840                 5.1142                 3.6889
 Frc consts  --      1.2034                 1.3745                 1.0177
 IR Inten    --      0.5631                 0.7873                 0.6427

                     61                     62                     63
                      A                      A                      A
 Frequencies --    691.8023               715.8038               744.5026
 Red. masses --      4.3554                 4.1535                 4.7948
 Frc consts  --      1.2281                 1.2539                 1.5659
 IR Inten    --      2.5289                 3.0901                 4.6322

                     64                     65                     66
                      A                      A                      A
 Frequencies --    752.8463               755.3256               772.1532
 Red. masses --      4.0090                 2.8376                 3.3469
 Frc consts  --      1.3387                 0.9538                 1.1757
 IR Inten    --      1.1523                13.6206                12.7146

                     67                     68                     69
                      A                      A                      A
 Frequencies --    774.7417               781.5487               797.5630
 Red. masses --      3.3933                 3.0153                 2.0261
 Frc consts  --      1.2000                 1.0852                 0.7593
 IR Inten    --      7.0451                16.2982                 2.4865

                     70                     71                     72
                      A                      A                      A
 Frequencies --    808.1989               826.6872               829.5318
 Red. masses --      4.5809                 2.1337                 4.2376
 Frc consts  --      1.7629                 0.8591                 1.7180
 IR Inten    --      6.0160                13.3588                19.1540

                     73                     74                     75
                      A                      A                      A
 Frequencies --    838.5319               842.8085               848.4762
 Red. masses --      3.9398                 5.2732                 7.0302
 Frc consts  --      1.6322                 2.2069                 2.9819
 IR Inten    --     16.1001                13.3022                 6.5661

                     76                     77                     78
                      A                      A                      A
 Frequencies --    849.4607               869.6861               889.7109
 Red. masses --      9.8289                 3.7125                 5.3177
 Frc consts  --      4.1787                 1.6544                 2.4801
 IR Inten    --      0.6376                 6.5650                 8.6127

                     79                     80                     81
                      A                      A                      A
 Frequencies --    922.4358               945.6739               977.8081
 Red. masses --      6.1394                 5.9627                 1.3349
 Frc consts  --      3.0779                 3.1418                 0.7520
 IR Inten    --      6.4884                18.9067                 8.0884

                     82                     83                     84
                      A                      A                      A
 Frequencies --    982.8341              1004.0208              1016.9786
 Red. masses --      4.6536                 1.4877                 2.2533
 Frc consts  --      2.6485                 0.8836                 1.3731
 IR Inten    --      1.3278                24.7512                 8.1357

                     85                     86                     87
                      A                      A                      A
 Frequencies --   1033.8406              1047.1643              1054.6816
 Red. masses --      1.1767                 1.2158                 1.2727
 Frc consts  --      0.7410                 0.7855                 0.8341
 IR Inten    --      4.3777                 5.3219                10.2265

                     88                     89                     90
                      A                      A                      A
 Frequencies --   1067.2447              1070.2086              1076.2918
 Red. masses --      1.2863                 1.3363                 1.2121
 Frc consts  --      0.8632                 0.9018                 0.8273
 IR Inten    --     17.4108                 3.3670                15.7739

                     91                     92                     93
                      A                      A                      A
 Frequencies --   1104.3210              1123.6049              1140.1001
 Red. masses --      4.0361                 3.7837                 3.8974
 Frc consts  --      2.9000                 2.8144                 2.9848
 IR Inten    --     66.0378                24.6822                 7.4099

                     94                     95                     96
                      A                      A                      A
 Frequencies --   1173.3867              1194.2012              1206.9501
 Red. masses --      5.3468                 6.4885                 3.8190
 Frc consts  --      4.3373                 5.4519                 3.2778
 IR Inten    --     89.2246                11.3744                33.5710

                     97                     98                     99
                      A                      A                      A
 Frequencies --   1226.3309              1244.9737              1277.7943
 Red. masses --      7.7553                 8.2612                 8.0753
 Frc consts  --      6.8717                 7.5442                 7.7684
 IR Inten    --     25.3091                41.4527               101.4307

                    100                    101                    102
                      A                      A                      A
 Frequencies --   1290.0224              1326.9462              1347.5237
 Red. masses --      6.4385                 9.4868                 9.1294
 Frc consts  --      6.3130                 9.8418                 9.7671
 IR Inten    --     19.2893                 3.0212                 2.9505

                    103                    104                    105
                      A                      A                      A
 Frequencies --   1434.9687              1444.7237              1481.5622
 Red. masses --      9.6507                10.6632                10.0000
 Frc consts  --     11.7084                13.1132                12.9327
 IR Inten    --     69.4278                36.7205                12.2496

                    106                    107                    108
                      A                      A                      A
 Frequencies --   1487.9902              1510.0476              1515.4548
 Red. masses --     10.4935                 9.3138                 9.7117
 Frc consts  --     13.6890                12.5129                13.1410
 IR Inten    --     29.5018                 6.5728                32.8459

                    109                    110                    111
                      A                      A                      A
 Frequencies --   1539.2935              1560.8904              1578.0546
 Red. masses --     10.6354                10.8689                10.9399
 Frc consts  --     14.8473                15.6021                16.0512
 IR Inten    --     56.0305                28.8717                 5.9815

                    112                    113                    114
                      A                      A                      A
 Frequencies --   1589.7779              1686.0013              1693.8574
 Red. masses --     11.6427                10.8924                11.0788
 Frc consts  --     17.3371                18.2427                18.7282
 IR Inten    --     81.7039                 3.3290                 8.2801

                    115                    116                    117
                      A                      A                      A
 Frequencies --   1725.4180              1726.5648              4417.2569
 Red. masses --     10.5855                10.7457                 1.0590
 Frc consts  --     18.5674                18.8734                12.1742
 IR Inten    --      0.6063                 7.8367                11.4571

                    118                    119                    120
                      A                      A                      A
 Frequencies --   4424.7026              4429.5070              4434.0832
 Red. masses --      1.0582                 1.0610                 1.0602
 Frc consts  --     12.2061                12.2647                12.2809
 IR Inten    --     10.7803                 7.0603                11.3572

                    121                    122                    123
                      A                      A                      A
 Frequencies --   4469.2608              4474.8047              4542.0253
 Red. masses --      1.0339                 1.0329                 1.1110
 Frc consts  --     12.1671                12.1854                13.5042
 IR Inten    --      6.4175                 6.6056                 6.8898

                    124                    125                    126
                      A                      A                      A
 Frequencies --   4549.6377              4552.3954              4560.8017
 Red. masses --      1.1086                 1.1128                 1.1096
 Frc consts  --     13.5206                13.5879                13.5985
 IR Inten    --      1.6985                 0.7636                 1.1945

                    127                    128                    129
                      A                      A                      A
 Frequencies --   4673.2972              4678.3241              4679.7052
 Red. masses --      1.1064                 1.1069                 1.1068
 Frc consts  --     14.2369                14.2742                14.2813
 IR Inten    --      2.2694                 2.7829                 0.0889

                    130                    131                    132
                      A                      A                      A
 Frequencies --   4689.2055              5021.0919              5023.5283
 Red. masses --      1.1066                 1.0869                 1.0871
 Frc consts  --     14.3363                16.1452                16.1638
 IR Inten    --      1.3597                 0.3212                 0.3463

                    133                    134                    135
                      A                      A                      A
 Frequencies --   5031.1814              5033.4262              5036.4842
 Red. masses --      1.0887                 1.0887                 1.0912
 Frc consts  --     16.2364                16.2513                16.3083
 IR Inten    --      0.1939                 0.4158                 0.0522

                    136                    137                    138
                      A                      A                      A
 Frequencies --   5042.8933              5043.8591              5045.4337
 Red. masses --      1.0906                 1.0914                 1.0920
 Frc consts  --     16.3407                16.3598                16.3778
 IR Inten    --      0.1614                 0.5155                 0.7039

 - Thermochemistry -
 -------------------
 Temperature   298.150 Kelvin.  Pressure   1.00000 Atm.
 Atom     1 has atomic number  7 and mass  14.00307

 Molecular mass:   346.17936 amu.
 Principal axes and moments of inertia in atomic units:
                           1         2         3
     Eigenvalues --  4844.52315********************
           X            0.99998  -0.00684  -0.00063
           Y            0.00684   0.99998  -0.00162
           Z            0.00064   0.00162   1.00000
 This molecule is an asymmetric top.
 Rotational symmetry number  1.
 Warning -- assumption of classical behavior for rotation
           may cause significant error
 Rotational temperatures (Kelvin)      0.01788     0.00654     0.00568
 Rotational constants (GHZ):           0.37253     0.13634     0.11843
   34 imaginary frequencies ignored.
 Zero-point vibrational energy    1064637.0 (Joules/Mol)
                                  254.45434 (Kcal/Mol)
 Warning -- explicit consideration of  21 degrees of freedom as
           vibrations may cause significant error
 Vibrational temperatures:    110.13   152.50   205.51   274.42   292.84
          (Kelvin)            364.17   395.07   407.44   425.65   463.29
                              542.07   566.94   610.15   638.96   665.00
                              698.74   807.37   809.84   820.73   850.69
                              881.18   919.01   924.78   930.43   971.73
                              984.51   995.35  1029.88  1071.17  1083.18
                             1086.75  1110.96  1114.68  1124.47  1147.52
                             1162.82  1189.42  1193.51  1206.46  1212.61
                             1220.77  1222.18  1251.28  1280.10  1327.18
                             1360.61  1406.85  1414.08  1444.56  1463.21
                             1487.47  1506.64  1517.45  1535.53  1539.79
                             1548.54  1588.87  1616.62  1640.35  1688.24
                             1718.19  1736.53  1764.42  1791.24  1838.46
                             1856.05  1909.18  1938.79  2064.60  2078.64
                             2131.64  2140.89  2172.62  2180.40  2214.70
                             2245.77  2270.47  2287.34  2425.78  2437.08
                             2482.49  2484.14  6355.45  6366.16  6373.07
                             6379.66  6430.27  6438.25  6534.96  6545.91
                             6549.88  6561.98  6723.83  6731.06  6733.05
                             6746.72  7224.23  7227.74  7238.75  7241.98
                             7246.38  7255.60  7256.99  7259.25

 Zero-point correction=                           0.405499 (Hartree/Particle)
 Thermal correction to Energy=                    0.419134
 Thermal correction to Enthalpy=                  0.420078
 Thermal correction to Gibbs Free Energy=         0.365192
 Sum of electronic and zero-point Energies=          -1104.913993
 Sum of electronic and thermal Energies=             -1104.900358
 Sum of electronic and thermal Enthalpies=           -1104.899414
 Sum of electronic and thermal Free Energies=        -1104.954299

                     E (Thermal)             CV                S
                      KCal/Mol        Cal/Mol-Kelvin    Cal/Mol-Kelvin
 Total                  263.010             61.688            115.517
 Electronic               0.000              0.000              0.000
 Translational            0.889              2.981             43.420
 Rotational               0.889              2.981             35.234
 Vibrational            261.233             55.727             36.863
 Vibration     1          0.599              1.965              3.978
 Vibration     2          0.605              1.944              3.341
 Vibration     3          0.616              1.910              2.766
 Vibration     4          0.634              1.853              2.221
 Vibration     5          0.639              1.835              2.101
 Vibration     6          0.664              1.758              1.709
 Vibration     7          0.677              1.720              1.567
 Vibration     8          0.682              1.705              1.514
 Vibration     9          0.690              1.681              1.440
 Vibration    10          0.707              1.631              1.300
 Vibration    11          0.747              1.520              1.052
 Vibration    12          0.761              1.483              0.985
 Vibration    13          0.786              1.418              0.878
 Vibration    14          0.804              1.374              0.814
 Vibration    15          0.820              1.334              0.760
 Vibration    16          0.842              1.282              0.695
 Vibration    17          0.917              1.115              0.522
 Vibration    18          0.919              1.112              0.518
 Vibration    19          0.927              1.095              0.503
 Vibration    20          0.949              1.050              0.465
 Vibration    21          0.972              1.005              0.429

 Normal termination of Gaussian 16 at Sat Mar  4 14:01:26 2023.
