 Gaussian 16, Revision C.01,
 Gaussian 16:  ES64L-G16RevC.01  3-Jul-2019

 ----------------------------------------------------------------------
 #p pop=(regular,nbo,savenbos) freq=noraman def2svp empiricaldispersion
 =gd3bj output=wfx pbe1pbe
 ----------------------------------------------------------------------

 ----------------------------------------
 LEZSOA_Complex_3_Ligand_2_ON_Cu_oriented
 ----------------------------------------
 Symbolic Z-matrix:
 Charge = -1 Multiplicity = 1

                         Standard orientation:
 ---------------------------------------------------------------------
 Center     Atomic      Atomic             Coordinates (Angstroms)
 Number     Number       Type             X           Y           Z
 ---------------------------------------------------------------------
      1          7           0       -0.253224    1.681739    0.049420
      2          6           0       -0.245096    0.246924   -0.256737
      3          1           0        0.499258    2.001698   -0.149241
      4          1           0       -0.074004    1.778685    0.902951
      5          6           0        0.712502   -0.560222    0.597331
      6          1           0        0.393496   -0.541514    1.512860
      7          1           0        0.680769   -1.482591    0.299373
      8          6           0        2.158677   -0.110634    0.591136
      9          1           0        2.657422   -0.644601    1.228416
     10          6           0        2.789881   -0.225916   -0.722953
     11          8           0       -2.612955    0.570316   -0.082926
     12          6           0       -1.681615   -0.281937   -0.131682
     13          8           0       -1.863152   -1.507407   -0.074726
     14          1           0        2.203043    0.814025    0.881690
     15          1           0        0.029796    0.144111   -1.191285
     16          1           0        3.700248    0.074958   -0.669021
     17          1           0        2.773019   -1.143467   -1.006512
     18          1           0        2.312281    0.313966   -1.356519
 ---------------------------------------------------------------------

 SCF Done:  E(RPBE1PBE) =  -400.852724493     A.U. after   14 cycles

 The electronic state is 1-A.
 Alpha  occ. eigenvalues --  -18.91415 -18.90325 -14.17155 -10.07922 -10.07127
 Alpha  occ. eigenvalues --  -10.06612 -10.06111 -10.04407  -0.81485  -0.78692
 Alpha  occ. eigenvalues --   -0.71396  -0.70529  -0.61684  -0.54654  -0.47512
 Alpha  occ. eigenvalues --   -0.38849  -0.38229  -0.34367  -0.32152  -0.30022
 Alpha  occ. eigenvalues --   -0.28696  -0.26929  -0.23788  -0.23311  -0.21594
 Alpha  occ. eigenvalues --   -0.19663  -0.17302  -0.15803  -0.10027  -0.02548
 Alpha  occ. eigenvalues --   -0.02372  -0.00012
 Alpha virt. eigenvalues --    0.18516   0.22687   0.23300   0.25231   0.27568
 Alpha virt. eigenvalues --    0.28144   0.30055   0.31259   0.32815   0.33873
 Alpha virt. eigenvalues --    0.36062   0.37733   0.39090   0.43376   0.44680

 Mulliken charges:
               1
     1  N    0.020936
     2  C   -0.088933
     3  H   -0.037627
     4  H   -0.007262
     5  C    0.089821
     6  H   -0.053322
     7  H   -0.046631
     8  C    0.040411
     9  H   -0.056686
    10  C    0.153409
    11  O   -0.438242
    12  C    0.109263
    13  O   -0.438275
    14  H   -0.078313
    15  H   -0.048177
    16  H   -0.054548
    17  H   -0.035968
    18  H   -0.029857
 Sum of Mulliken charges =  -1.00000

 Dipole moment (field-independent basis, Debye):
    X=             10.7855    Y=              1.3154    Z=              0.7247  Tot=             10.8896
 Quadrupole moment (field-independent basis, Debye-Ang):
   XX=            -79.7135   YY=            -60.6141   ZZ=            -48.8987
   XY=             -0.4519   XZ=             -0.7517   YZ=              1.2706

  Exact polarizability:      71.288      -2.008      59.202       0.284       0.317      48.669
 Approx polarizability:      86.516      -6.225      88.938       0.694       0.569      66.507

 Summary of Natural Population Analysis:

                                       Natural Population
                Natural  -----------------------------------------------
    Atom  No    Charge         Core      Valence    Rydberg      Total
 -----------------------------------------------------------------------
      N    1   -0.75925      1.99930     5.73184    0.02810     7.75925
      C    2   -0.11466      1.99897     4.09199    0.02369     6.11466
      H    3    0.27978      0.00000     0.71320    0.00702     0.72022
      H    4    0.29638      0.00000     0.69563    0.00799     0.70362
      C    5   -0.38853      1.99903     4.37116    0.01834     6.38853
      H    6    0.17925      0.00000     0.81573    0.00502     0.82075
      H    7    0.19432      0.00000     0.79671    0.00897     0.80568
      C    8   -0.35279      1.99912     4.34153    0.01214     6.35279
      H    9    0.16976      0.00000     0.82595    0.00429     0.83024
      C   10   -0.54485      1.99921     4.53746    0.00818     6.54485
      O   11   -0.78426      1.99976     6.77561    0.00889     8.78426
      C   12    0.78211      1.99946     3.14472    0.07372     5.21789
      O   13   -0.80646      1.99974     6.79700    0.00972     8.80646
      H   14    0.15649      0.00000     0.83451    0.00900     0.84351
      H   15    0.16596      0.00000     0.82915    0.00489     0.83404
      H   16    0.17074      0.00000     0.82615    0.00312     0.82926
      H   17    0.17637      0.00000     0.82023    0.00340     0.82363
      H   18    0.17966      0.00000     0.81702    0.00332     0.82034
 =======================================================================
   * Total *   -1.00000     15.99460    47.76560    0.23981    64.00000

 ******   14 imaginary frequencies (negative Signs) ******

                      1                      2                      3
                      A                      A                      A
 Frequencies --  -2113.4320             -1781.5321             -1421.7766
 Red. masses --      1.0608                 1.0842                 1.0816
 Frc consts  --      2.7917                 2.0274                 1.2881
 IR Inten    --     86.1866                82.5978                80.0223

                      4                      5                      6
                      A                      A                      A
 Frequencies --  -1376.3524             -1104.7664             -1070.2158
 Red. masses --      1.0177                 1.0579                 1.0345
 Frc consts  --      1.1359                 0.7607                 0.6981
 IR Inten    --      1.1428                 8.4703                 1.0103

                      7                      8                      9
                      A                      A                      A
 Frequencies --   -993.2735              -962.3274              -558.9809
 Red. masses --      1.0706                 1.0950                 1.2596
 Frc consts  --      0.6223                 0.5975                 0.2319
 IR Inten    --      9.8023                 1.2403                 2.0619

                     10                     11                     12
                      A                      A                      A
 Frequencies --   -487.2174              -465.6884              -363.6245
 Red. masses --      1.2975                 1.4561                 1.6405
 Frc consts  --      0.1815                 0.1860                 0.1278
 IR Inten    --      5.6896                 0.2033                 3.7153

                     13                     14                     15
                      A                      A                      A
 Frequencies --   -325.0064              -175.8053               306.0219
 Red. masses --      2.0487                 3.7709                 6.0721
 Frc consts  --      0.1275                 0.0687                 0.3350
 IR Inten    --      5.6191                 2.5845                 5.3856

                     16                     17                     18
                      A                      A                      A
 Frequencies --    427.3634               463.7316               477.1833
 Red. masses --      5.4519                 1.2385                 3.2686
 Frc consts  --      0.5867                 0.1569                 0.4385
 IR Inten    --      6.2865                12.3562                 2.9612

                     19                     20                     21
                      A                      A                      A
 Frequencies --    592.3111               660.3538               718.1025
 Red. masses --      2.4768                 1.7795                 1.4513
 Frc consts  --      0.5120                 0.4572                 0.4409
 IR Inten    --      3.7780                36.3736                 9.3698

                     22                     23                     24
                      A                      A                      A
 Frequencies --    725.7735               805.6170               828.8536
 Red. masses --      2.1253                 2.0462                 4.8509
 Frc consts  --      0.6596                 0.7824                 1.9635
 IR Inten    --      2.8499                 5.2918                29.0175

                     25                     26                     27
                      A                      A                      A
 Frequencies --    859.8901               869.7562               905.2063
 Red. masses --      1.7684                 2.7740                 4.0829
 Frc consts  --      0.7704                 1.2364                 1.9711
 IR Inten    --      7.7932                 3.5697                 4.9507

                     28                     29                     30
                      A                      A                      A
 Frequencies --    957.6378               984.8142              1005.0544
 Red. masses --      1.2145                 1.5104                 1.0706
 Frc consts  --      0.6562                 0.8631                 0.6372
 IR Inten    --      4.5338                 0.4585                17.7863

                     31                     32                     33
                      A                      A                      A
 Frequencies --   1052.1828              1071.1774              1125.4174
 Red. masses --      1.7583                 1.8341                 2.2969
 Frc consts  --      1.1469                 1.2399                 1.7140
 IR Inten    --      3.0401                14.1602                 3.6178

                     34                     35                     36
                      A                      A                      A
 Frequencies --   1184.4823              1226.1561              1309.9949
 Red. masses --      5.0789                 5.1768                 6.0433
 Frc consts  --      4.1983                 4.5857                 6.1104
 IR Inten    --     12.8373                15.4809                 1.3002

                     37                     38                     39
                      A                      A                      A
 Frequencies --   1464.0504              1774.8970              4365.9785
 Red. masses --     12.7123                12.8330                 1.0866
 Frc consts  --     16.0542                23.8191                12.2034
 IR Inten    --    260.1632               432.2844                18.5581

                     40                     41                     42
                      A                      A                      A
 Frequencies --   4409.8213              4424.4195              4458.9458
 Red. masses --      1.0603                 1.0612                 1.0330
 Frc consts  --     12.1484                12.2395                12.1013
 IR Inten    --     33.2669                15.1954                22.2181

                     43                     44                     45
                      A                      A                      A
 Frequencies --   4526.3482              4544.7777              4657.0578
 Red. masses --      1.1074                 1.1071                 1.1061
 Frc consts  --     13.3672                13.4730                14.1344
 IR Inten    --     21.7717                12.6444                14.4256

                     46                     47                     48
                      A                      A                      A
 Frequencies --   4670.7738              5525.9269              6159.8143
 Red. masses --      1.1062                 1.0711                 1.0724
 Frc consts  --     14.2192                19.2708                23.9737
 IR Inten    --      7.6203                 0.7017                10.0488

 - Thermochemistry -
 -------------------
 Temperature   298.150 Kelvin.  Pressure   1.00000 Atm.
 Atom     1 has atomic number  7 and mass  14.00307

 Molecular mass:   116.07115 amu.
 Principal axes and moments of inertia in atomic units:
                           1         2         3
     Eigenvalues --   449.460691499.372211761.28207
           X            0.99995  -0.00757  -0.00683
           Y            0.00762   0.99995   0.00668
           Z            0.00678  -0.00673   0.99995
 This molecule is an asymmetric top.
 Rotational symmetry number  1.
 Warning -- assumption of classical behavior for rotation
           may cause significant error
 Rotational temperatures (Kelvin)      0.19271     0.05777     0.04918
 Rotational constants (GHZ):           4.01535     1.20366     1.02467
   14 imaginary frequencies ignored.
 Zero-point vibrational energy     415940.9 (Joules/Mol)
                                   99.41227 (Kcal/Mol)
 Warning -- explicit consideration of   5 degrees of freedom as
           vibrations may cause significant error
 Vibrational temperatures:    440.30   614.88   667.21   686.56   852.20
          (Kelvin)            950.10  1033.19  1044.23  1159.10  1192.54
                             1237.19  1251.39  1302.39  1377.83  1416.93
                             1446.05  1513.86  1541.19  1619.22  1704.21
                             1764.17  1884.79  2106.44  2553.68  6281.67
                             6344.75  6365.75  6415.43  6512.41  6538.92
                             6700.47  6720.20  7950.58  8862.60

 Zero-point correction=                           0.158424 (Hartree/Particle)
 Thermal correction to Energy=                    0.163522
 Thermal correction to Enthalpy=                  0.164466
 Thermal correction to Gibbs Free Energy=         0.128686
 Sum of electronic and zero-point Energies=           -400.694301
 Sum of electronic and thermal Energies=              -400.689202
 Sum of electronic and thermal Enthalpies=            -400.688258
 Sum of electronic and thermal Free Energies=         -400.724039

                     E (Thermal)             CV                S
                      KCal/Mol        Cal/Mol-Kelvin    Cal/Mol-Kelvin
 Total                  102.612             20.774             75.307
 Electronic               0.000              0.000              0.000
 Translational            0.889              2.981             40.162
 Rotational               0.889              2.981             28.564
 Vibrational            100.834             14.813              6.581
 Vibration     1          0.696              1.662              1.384
 Vibration     2          0.789              1.411              0.867
 Vibration     3          0.821              1.331              0.755
 Vibration     4          0.834              1.301              0.718
 Vibration     5          0.950              1.048              0.463

 Normal termination of Gaussian 16 at Mon Mar  6 10:29:04 2023.
