 Gaussian 16, Revision C.01,
 Gaussian 16:  ES64L-G16RevC.01  3-Jul-2019

 ----------------------------------------------------------------------
 #p pop=(regular,nbo,savenbos) freq=noraman def2svp empiricaldispersion
 =gd3bj output=wfx pbe1pbe
 ----------------------------------------------------------------------

 ----------------------------------------
 LIPTEM_Complex_0_Ligand_1_SS_Cu_oriented
 ----------------------------------------
 Symbolic Z-matrix:
 Charge = -1 Multiplicity = 1

                         Standard orientation:
 ---------------------------------------------------------------------
 Center     Atomic      Atomic             Coordinates (Angstroms)
 Number     Number       Type             X           Y           Z
 ---------------------------------------------------------------------
      1         16           0       -3.151794   -0.240992    0.506349
      2          7           0       -0.710292    0.533833   -0.162683
      3          6           0       -1.564430   -0.448477   -0.103760
      4          6           0        0.637775    0.413194   -0.735705
      5          6           0        1.585318   -0.208778    0.247793
      6          8           0        1.442454   -0.286914    1.415374
      7          6           0       -0.979233    1.893321    0.327612
      8          1           0       -1.197816    1.885857    1.272006
      9          1           0       -1.711755    2.300104   -0.162345
     10          6           0        0.999300    1.863448   -1.032607
     11          1           0        1.959996    1.994323   -1.007393
     12          1           0        0.664912    2.134403   -1.901658
     13          6           0        0.316980    2.633564    0.077742
     14          1           0        0.866292    2.644397    0.877109
     15          1           0        0.142832    3.548073   -0.195394
     16          8           0        2.670959   -0.635786   -0.387578
     17          6           0        3.717126   -1.196854    0.454187
     18          1           0        3.882522   -0.608531    1.194037
     19          1           0        4.520485   -1.299881   -0.059985
     20          1           0        3.436120   -2.054300    0.783340
     21         16           0       -1.184905   -2.039378   -0.614507
     22          1           0        0.611317   -0.110258   -1.564348
 ---------------------------------------------------------------------

 SCF Done:  E(RPBE1PBE) =  -1272.87396631     A.U. after   14 cycles

 The electronic state is 1-A.
 Alpha  occ. eigenvalues --  -88.74163 -88.73863 -19.14177 -19.07409 -14.26995
 Alpha  occ. eigenvalues --  -10.22938 -10.15803 -10.13563 -10.12996 -10.10481
 Alpha  occ. eigenvalues --  -10.10407 -10.09453  -7.74276  -7.73990  -5.68571
 Alpha  occ. eigenvalues --   -5.68290  -5.67957  -5.67689  -5.67680  -5.67369
 Alpha  occ. eigenvalues --   -1.01775  -0.92319  -0.85036  -0.72480  -0.69075
 Alpha  occ. eigenvalues --   -0.65214  -0.60021  -0.54187  -0.52220  -0.48775
 Alpha  occ. eigenvalues --   -0.46646  -0.44324  -0.43621  -0.40988  -0.39596
 Alpha  occ. eigenvalues --   -0.37758  -0.34956  -0.34268  -0.32550  -0.31307
 Alpha  occ. eigenvalues --   -0.30906  -0.27861  -0.26155  -0.25432  -0.25110
 Alpha  occ. eigenvalues --   -0.22148  -0.21035  -0.19607  -0.16953  -0.15107
 Alpha  occ. eigenvalues --   -0.06223  -0.04583  -0.01356   0.01038
 Alpha virt. eigenvalues --    0.14729   0.18047   0.18310   0.19506   0.21556
 Alpha virt. eigenvalues --    0.22990   0.23992   0.24888   0.26321   0.26631
 Alpha virt. eigenvalues --    0.27478   0.28781   0.28915   0.31011   0.32110

 Mulliken charges:
               1
     1  S   -0.475051
     2  N   -0.315820
     3  C   -0.038789
     4  C    0.111134
     5  C    0.240928
     6  O   -0.234834
     7  C    0.392563
     8  H   -0.043633
     9  H   -0.047611
    10  C    0.110381
    11  H   -0.042295
    12  H   -0.020897
    13  C    0.018264
    14  H   -0.028090
    15  H   -0.043692
    16  O   -0.373948
    17  C    0.361800
    18  H   -0.026916
    19  H   -0.032146
    20  H   -0.008459
    21  S   -0.468667
    22  H   -0.034221
 Sum of Mulliken charges =  -1.00000

 Dipole moment (field-independent basis, Debye):
    X=             11.2138    Y=              6.2270    Z=             -1.0114  Tot=             12.8665
 Quadrupole moment (field-independent basis, Debye-Ang):
   XX=           -111.5232   YY=            -95.8343   ZZ=            -92.8809
   XY=            -10.8974   XZ=              2.9220   YZ=             -3.6815

  Exact polarizability:     137.732      -0.148     118.858     -11.308       6.156      81.336
 Approx polarizability:     190.368      -4.941     176.378     -26.162      15.481     132.780

 Summary of Natural Population Analysis:

                                       Natural Population
                Natural  -----------------------------------------------
    Atom  No    Charge         Core      Valence    Rydberg      Total
 -----------------------------------------------------------------------
      S    1   -0.42052      9.99921     6.39505    0.02626    16.42052
      N    2   -0.49087      1.99887     5.47787    0.01413     7.49087
      C    3   -0.03299      1.99920     3.98630    0.04750     6.03299
      C    4   -0.08591      1.99894     4.05917    0.02780     6.08591
      C    5    0.85675      1.99928     3.07967    0.06431     5.14325
      O    6   -0.61338      1.99969     6.60215    0.01154     8.61338
      C    7   -0.13093      1.99911     4.11037    0.02146     6.13093
      H    8    0.18856      0.00000     0.80477    0.00667     0.81144
      H    9    0.17587      0.00000     0.81686    0.00728     0.82413
      C   10   -0.35698      1.99909     4.34414    0.01375     6.35698
      H   11    0.18545      0.00000     0.81059    0.00396     0.81455
      H   12    0.18544      0.00000     0.81096    0.00360     0.81456
      C   13   -0.37548      1.99913     4.36440    0.01196     6.37548
      H   14    0.18118      0.00000     0.81469    0.00414     0.81882
      H   15    0.18189      0.00000     0.81474    0.00337     0.81811
      O   16   -0.58224      1.99964     6.57242    0.01018     8.58224
      C   17   -0.14654      1.99887     4.13632    0.01134     6.14654
      H   18    0.15868      0.00000     0.83708    0.00424     0.84132
      H   19    0.15588      0.00000     0.84210    0.00202     0.84412
      H   20    0.16450      0.00000     0.83203    0.00347     0.83550
      S   21   -0.42239      9.99920     6.39698    0.02621    16.42239
      H   22    0.22404      0.00000     0.76534    0.01063     0.77596
 =======================================================================
   * Total *   -1.00000     39.99022    67.67397    0.33581   108.00000

 ******   14 imaginary frequencies (negative Signs) ******

                      1                      2                      3
                      A                      A                      A
 Frequencies --  -1415.6748             -1077.6612             -1043.4782
 Red. masses --      1.0110                 1.0476                 1.0312
 Frc consts  --      1.1938                 0.7168                 0.6616
 IR Inten    --      0.1018                 5.0151                 1.1190

                      4                      5                      6
                      A                      A                      A
 Frequencies --  -1020.7098              -883.7080              -862.1648
 Red. masses --      1.0416                 1.0796                 1.1163
 Frc consts  --      0.6394                 0.4967                 0.4889
 IR Inten    --      1.1830                 4.9677                 4.2908

                      7                      8                      9
                      A                      A                      A
 Frequencies --   -609.9849              -560.3375              -553.2681
 Red. masses --      1.1732                 1.3351                 1.3403
 Frc consts  --      0.2572                 0.2470                 0.2417
 IR Inten    --      0.2605                 3.0210                 1.2354

                     10                     11                     12
                      A                      A                      A
 Frequencies --   -477.4529              -365.5373              -213.7897
 Red. masses --      1.4445                 1.2642                 1.3076
 Frc consts  --      0.1940                 0.0995                 0.0352
 IR Inten    --      7.9135                 0.8568                 1.2874

                     13                     14                     15
                      A                      A                      A
 Frequencies --   -171.1560              -101.7094                92.2692
 Red. masses --      3.1718                10.5901                 8.9653
 Frc consts  --      0.0547                 0.0645                 0.0450
 IR Inten    --      1.9627                 2.9744                 0.2519

                     16                     17                     18
                      A                      A                      A
 Frequencies --    114.8817               289.8382               301.9112
 Red. masses --      6.7040                 4.6881                 8.6472
 Frc consts  --      0.0521                 0.2320                 0.4644
 IR Inten    --      7.8312                 2.6941                14.9328

                     19                     20                     21
                      A                      A                      A
 Frequencies --    367.9051               386.2630               463.6347
 Red. masses --      1.9904                 3.8722                 5.0837
 Frc consts  --      0.1587                 0.3404                 0.6438
 IR Inten    --      2.9636                 1.3183                16.4021

                     22                     23                     24
                      A                      A                      A
 Frequencies --    500.0365               530.1381               550.1473
 Red. masses --      7.3116                 8.1983                 4.2767
 Frc consts  --      1.0771                 1.3575                 0.7626
 IR Inten    --     10.2080                 0.5934                 0.3657

                     25                     26                     27
                      A                      A                      A
 Frequencies --    576.9423               612.2839               689.9507
 Red. masses --      1.6619                 3.6756                 2.5056
 Frc consts  --      0.3259                 0.8119                 0.7027
 IR Inten    --     45.2534                 0.5611                10.9900

                     28                     29                     30
                      A                      A                      A
 Frequencies --    704.5008               771.1760               807.5059
 Red. masses --      3.0920                 3.7292                 2.2150
 Frc consts  --      0.9042                 1.3067                 0.8510
 IR Inten    --     13.3638                 5.5880                 3.1475

                     31                     32                     33
                      A                      A                      A
 Frequencies --    830.2826               840.9501               879.6228
 Red. masses --      2.7521                 4.8867                 3.5555
 Frc consts  --      1.1178                 2.0361                 1.6208
 IR Inten    --      2.5487                47.3160                18.2331

                     34                     35                     36
                      A                      A                      A
 Frequencies --    911.8454               957.8195               978.3709
 Red. masses --      3.3241                 3.2936                 2.1301
 Frc consts  --      1.6284                 1.7803                 1.2013
 IR Inten    --      3.0014                 2.3290                 3.9214

                     37                     38                     39
                      A                      A                      A
 Frequencies --    990.7917              1004.4004              1015.5782
 Red. masses --      1.1507                 2.0235                 1.5337
 Frc consts  --      0.6655                 1.2027                 0.9320
 IR Inten    --     13.5638                51.0532                34.9187

                     40                     41                     42
                      A                      A                      A
 Frequencies --   1018.1284              1038.6372              1072.9107
 Red. masses --      1.2826                 1.4157                 1.7143
 Frc consts  --      0.7833                 0.8998                 1.1627
 IR Inten    --     50.0413                54.8729                25.1783

                     43                     44                     45
                      A                      A                      A
 Frequencies --   1110.3323              1123.7653              1165.9040
 Red. masses --      4.9816                 4.4637                 5.0270
 Frc consts  --      3.6185                 3.3212                 4.0261
 IR Inten    --      2.2019                 3.1057                15.6047

                     46                     47                     48
                      A                      A                      A
 Frequencies --   1192.7595              1264.7313              1383.4314
 Red. masses --      5.6499                 5.6062                 9.9383
 Frc consts  --      4.7359                 5.2834                11.2067
 IR Inten    --      4.8824               140.3102               358.1069

                     49                     50                     51
                      A                      A                      A
 Frequencies --   1653.8223              2034.0159              4373.4019
 Red. masses --     12.6870                12.6743                 1.0877
 Frc consts  --     20.4450                30.8947                12.2575
 IR Inten    --    391.7693               198.9353                 1.8551

                     52                     53                     54
                      A                      A                      A
 Frequencies --   4416.2096              4421.8511              4425.4138
 Red. masses --      1.0588                 1.0589                 1.0607
 Frc consts  --     12.1662                12.1985                12.2394
 IR Inten    --      8.7418                13.4711                32.0706

                     55                     56                     57
                      A                      A                      A
 Frequencies --   4481.7338              4538.6934              4549.0783
 Red. masses --      1.0309                 1.1113                 1.1105
 Frc consts  --     12.1999                13.4874                13.5403
 IR Inten    --     23.9732                 4.2665                 2.0147

                     58                     59                     60
                      A                      A                      A
 Frequencies --   4552.5653              4686.2713              4694.7498
 Red. masses --      1.1097                 1.1079                 1.1081
 Frc consts  --     13.5504                14.3356                14.3899
 IR Inten    --     15.2288                 2.0129                 2.9210

 - Thermochemistry -
 -------------------
 Temperature   298.150 Kelvin.  Pressure   1.00000 Atm.
 Atom     1 has atomic number 16 and mass  31.97207

 Molecular mass:   204.01530 amu.
 Principal axes and moments of inertia in atomic units:
                           1         2         3
     Eigenvalues --  1678.920493283.977604315.37781
           X            0.99960  -0.02796   0.00333
           Y            0.02801   0.99949  -0.01562
           Z           -0.00289   0.01570   0.99987
 This molecule is an asymmetric top.
 Rotational symmetry number  1.
 Warning -- assumption of classical behavior for rotation
           may cause significant error
 Rotational temperatures (Kelvin)      0.05159     0.02637     0.02007
 Rotational constants (GHZ):           1.07494     0.54956     0.41821
   14 imaginary frequencies ignored.
 Zero-point vibrational energy     450797.5 (Joules/Mol)
                                  107.74318 (Kcal/Mol)
 Warning -- explicit consideration of  12 degrees of freedom as
           vibrations may cause significant error
 Vibrational temperatures:    132.75   165.29   417.01   434.38   529.33
          (Kelvin)            555.75   667.07   719.44   762.75   791.54
                              830.09   880.94   992.69  1013.62  1109.55
                             1161.82  1194.59  1209.94  1265.58  1311.94
                             1378.09  1407.66  1425.53  1445.11  1461.19
                             1464.86  1494.37  1543.68  1597.52  1616.85
                             1677.48  1716.11  1819.67  1990.45  2379.48
                             2926.50  6292.35  6353.94  6362.06  6367.18
                             6448.22  6530.17  6545.11  6550.13  6742.50
                             6754.70

 Zero-point correction=                           0.171700 (Hartree/Particle)
 Thermal correction to Energy=                    0.179731
 Thermal correction to Enthalpy=                  0.180675
 Thermal correction to Gibbs Free Energy=         0.137286
 Sum of electronic and zero-point Energies=          -1272.702267
 Sum of electronic and thermal Energies=             -1272.694235
 Sum of electronic and thermal Enthalpies=           -1272.693291
 Sum of electronic and thermal Free Energies=        -1272.736680

                     E (Thermal)             CV                S
                      KCal/Mol        Cal/Mol-Kelvin    Cal/Mol-Kelvin
 Total                  112.783             32.699             91.319
 Electronic               0.000              0.000              0.000
 Translational            0.889              2.981             41.843
 Rotational               0.889              2.981             31.543
 Vibrational            111.005             26.737             17.933
 Vibration     1          0.602              1.955              3.611
 Vibration     2          0.608              1.937              3.185
 Vibration     3          0.686              1.693              1.475
 Vibration     4          0.694              1.670              1.406
 Vibration     5          0.741              1.538              1.089
 Vibration     6          0.755              1.500              1.015
 Vibration     7          0.821              1.331              0.756
 Vibration     8          0.855              1.250              0.658
 Vibration     9          0.885              1.183              0.587
 Vibration    10          0.905              1.139              0.544
 Vibration    11          0.933              1.081              0.491
 Vibration    12          0.972              1.006              0.429

 Normal termination of Gaussian 16 at Mon Mar  6 10:37:37 2023.
