 Gaussian 16, Revision C.01,
 Gaussian 16:  ES64L-G16RevC.01  3-Jul-2019

 ----------------------------------------------------------------------
 #p pop=(regular,nbo,savenbos) freq=noraman def2svp empiricaldispersion
 =gd3bj output=wfx pbe1pbe
 ----------------------------------------------------------------------

 ----------------------------------------
 LIXVET_Complex_0_Ligand_1_ON_Cu_oriented
 ----------------------------------------
 Symbolic Z-matrix:
 Charge = -1 Multiplicity = 1

                         Standard orientation:
 ---------------------------------------------------------------------
 Center     Atomic      Atomic             Coordinates (Angstroms)
 Number     Number       Type             X           Y           Z
 ---------------------------------------------------------------------
      1          6           0       -0.653354    0.320915   -0.323023
      2          6           0       -0.030521    1.709401   -0.403969
      3          1           0       -0.608372    2.325696   -0.858671
      4          1           0        0.167052    2.048855    0.472571
      5          6           0        1.225879    1.457165   -1.185090
      6          1           0        1.097512    1.665935   -2.113065
      7          1           0        1.953561    1.981902   -0.844651
      8          6           0        1.495694   -0.056984   -0.982216
      9          1           0        1.851139   -0.447037   -1.784534
     10          7           0        0.173771   -0.631512   -0.668632
     11          6           0        2.435326   -0.287029    0.176699
     12          8           0        2.091224   -0.371460    1.313107
     13          8           0        3.697994   -0.311180   -0.204507
     14          6           0        4.687190   -0.501234    0.833920
     15          1           0        4.532013   -1.339452    1.275190
     16          1           0        4.624676    0.212754    1.472423
     17          8           0       -2.079922   -2.197321   -0.438791
     18          6           0       -2.660487   -1.119473   -0.048917
     19          6           0       -1.999608    0.117654    0.058225
     20          6           0       -2.710737    1.265794    0.567825
     21          7           0       -3.253980    2.176888    1.001667
     22          6           0       -4.120868   -1.231687    0.213420
     23          1           0       -4.393946   -2.144430    0.095721
     24          1           0       -4.308700   -0.954974    1.113656
     25          1           0       -4.601121   -0.671299   -0.400809
     26          1           0        5.562197   -0.503036    0.441194
 ---------------------------------------------------------------------

 SCF Done:  E(RPBE1PBE) =  -721.389660488     A.U. after   16 cycles

 The electronic state is 1-A.
 Alpha  occ. eigenvalues --  -19.15047 -19.07379 -18.98449 -14.20813 -14.19431
 Alpha  occ. eigenvalues --  -10.22949 -10.16604 -10.12826 -10.11554 -10.11295
 Alpha  occ. eigenvalues --  -10.10249 -10.08485 -10.06898 -10.06555 -10.04094
 Alpha  occ. eigenvalues --   -1.02437  -0.92219  -0.82464  -0.79606  -0.75587
 Alpha  occ. eigenvalues --   -0.69543  -0.66326  -0.65158  -0.63136  -0.58278
 Alpha  occ. eigenvalues --   -0.52863  -0.48557  -0.44111  -0.43196  -0.42011
 Alpha  occ. eigenvalues --   -0.40176  -0.38804  -0.37325  -0.36848  -0.33947
 Alpha  occ. eigenvalues --   -0.32647  -0.32338  -0.32001  -0.29670  -0.28224
 Alpha  occ. eigenvalues --   -0.27543  -0.26564  -0.24024  -0.22986  -0.22761
 Alpha  occ. eigenvalues --   -0.22368  -0.21383  -0.20609  -0.18733  -0.18124
 Alpha  occ. eigenvalues --   -0.16908  -0.14335  -0.10597  -0.05570  -0.04286
 Alpha virt. eigenvalues --    0.14191   0.16327   0.17900   0.20045   0.20251
 Alpha virt. eigenvalues --    0.21447   0.21971   0.23222   0.23626   0.24560
 Alpha virt. eigenvalues --    0.25766   0.27138   0.27491   0.29839   0.30251

 Mulliken charges:
               1
     1  C   -0.155798
     2  C    0.258303
     3  H   -0.037404
     4  H   -0.033104
     5  C    0.123478
     6  H   -0.039371
     7  H   -0.065763
     8  C    0.070865
     9  H   -0.061172
    10  N   -0.238133
    11  C    0.221060
    12  O   -0.247725
    13  O   -0.362408
    14  C    0.360000
    15  H   -0.016223
    16  H   -0.021503
    17  O   -0.356215
    18  C   -0.087378
    19  C   -0.137650
    20  C   -0.185840
    21  N   -0.106990
    22  C    0.285275
    23  H   -0.066344
    24  H   -0.035469
    25  H   -0.033626
    26  H   -0.030864
 Sum of Mulliken charges =  -1.00000

 Dipole moment (field-independent basis, Debye):
    X=              9.2836    Y=              1.6750    Z=             -1.2411  Tot=              9.5148
 Quadrupole moment (field-independent basis, Debye-Ang):
   XX=           -105.6157   YY=           -109.5051   ZZ=            -93.0415
   XY=              5.7547   XZ=              6.1673   YZ=             -7.9029

  Exact polarizability:     161.248      -4.792     116.645     -12.183       6.511      84.018
 Approx polarizability:     191.718     -24.756     192.533     -26.478      22.776     131.433

 Summary of Natural Population Analysis:

                                       Natural Population
                Natural  -----------------------------------------------
    Atom  No    Charge         Core      Valence    Rydberg      Total
 -----------------------------------------------------------------------
      C    1    0.29281      1.99909     3.67628    0.03182     5.70719
      C    2   -0.40598      1.99906     4.39367    0.01325     6.40598
      H    3    0.19288      0.00000     0.80352    0.00360     0.80712
      H    4    0.19489      0.00000     0.80118    0.00394     0.80511
      C    5   -0.35899      1.99908     4.34582    0.01408     6.35899
      H    6    0.17898      0.00000     0.81755    0.00347     0.82102
      H    7    0.17532      0.00000     0.82069    0.00399     0.82468
      C    8   -0.09439      1.99891     4.07099    0.02448     6.09439
      H    9    0.17905      0.00000     0.81668    0.00427     0.82095
      N   10   -0.54278      1.99933     5.52648    0.01697     7.54278
      C   11    0.85494      1.99931     3.08561    0.06014     5.14506
      O   12   -0.61857      1.99970     6.60756    0.01131     8.61857
      O   13   -0.58118      1.99963     6.57135    0.01020     8.58118
      C   14   -0.14796      1.99889     4.13716    0.01192     6.14796
      H   15    0.16205      0.00000     0.83438    0.00356     0.83795
      H   16    0.15987      0.00000     0.83646    0.00367     0.84013
      O   17   -0.65857      1.99978     6.65032    0.00847     8.65857
      C   18    0.51608      1.99907     3.44418    0.04067     5.48392
      C   19   -0.44074      1.99863     4.42366    0.01844     6.44074
      C   20    0.31458      1.99926     3.64627    0.03988     5.68542
      N   21   -0.48581      1.99955     5.46100    0.02526     7.48581
      C   22   -0.61868      1.99909     4.61127    0.00832     6.61868
      H   23    0.19109      0.00000     0.80271    0.00620     0.80891
      H   24    0.19261      0.00000     0.80431    0.00309     0.80739
      H   25    0.19155      0.00000     0.80550    0.00295     0.80845
      H   26    0.15695      0.00000     0.84100    0.00205     0.84305
 =======================================================================
   * Total *   -1.00000     29.98838    79.63564    0.37598   110.00000

 ******   16 imaginary frequencies (negative Signs) ******

                      1                      2                      3
                      A                      A                      A
 Frequencies --  -1417.9180             -1409.4453             -1187.4064
 Red. masses --      1.0091                 1.0139                 1.0471
 Frc consts  --      1.1953                 1.1867                 0.8698
 IR Inten    --      0.1202                 0.6289                 4.8649

                      4                      5                      6
                      A                      A                      A
 Frequencies --  -1161.4106             -1057.5120             -1028.1304
 Red. masses --      1.0244                 1.0620                 1.0453
 Frc consts  --      0.8141                 0.6997                 0.6510
 IR Inten    --      1.4191                 2.5613                 5.7485

                      7                      8                      9
                      A                      A                      A
 Frequencies --   -884.8999              -860.4382              -746.1681
 Red. masses --      1.0683                 1.1276                 1.1161
 Frc consts  --      0.4929                 0.4919                 0.3661
 IR Inten    --      5.1583                 4.1061                 1.5824

                     10                     11                     12
                      A                      A                      A
 Frequencies --   -710.8326              -640.0788              -581.1721
 Red. masses --      1.1844                 1.2497                 1.0890
 Frc consts  --      0.3526                 0.3017                 0.2167
 IR Inten    --      4.9367                 6.5302                 2.0476

                     13                     14                     15
                      A                      A                      A
 Frequencies --   -550.2650              -450.5055              -124.1008
 Red. masses --      1.2754                 1.4612                11.0727
 Frc consts  --      0.2275                 0.1747                 0.1005
 IR Inten    --     23.6415                 1.1290                 4.4887

                     16                     17                     18
                      A                      A                      A
 Frequencies --   -102.9493                68.3314               105.7628
 Red. masses --     11.0641                 9.1281                 8.2886
 Frc consts  --      0.0691                 0.0251                 0.0546
 IR Inten    --      3.3908                 3.3858                 0.6388

                     19                     20                     21
                      A                      A                      A
 Frequencies --    181.8961               233.8545               245.2878
 Red. masses --      9.3896                 3.1711                 1.3932
 Frc consts  --      0.1830                 0.1022                 0.0494
 IR Inten    --      6.1596                12.2643                18.2654

                     22                     23                     24
                      A                      A                      A
 Frequencies --    266.2253               339.6956               392.4847
 Red. masses --      8.1740                 6.6383                 5.4930
 Frc consts  --      0.3413                 0.4513                 0.4985
 IR Inten    --      6.8231                 2.3668                 7.7825

                     25                     26                     27
                      A                      A                      A
 Frequencies --    442.4796               473.4514               482.1894
 Red. masses --      6.5328                 7.0229                 5.3875
 Frc consts  --      0.7536                 0.9275                 0.7380
 IR Inten    --      2.7983                 6.6786                 4.4084

                     28                     29                     30
                      A                      A                      A
 Frequencies --    521.1539               539.2336               553.4915
 Red. masses --      5.3573                10.7465                 7.9974
 Frc consts  --      0.8573                 1.8411                 1.4435
 IR Inten    --      7.7591                 6.4806                 6.4304

                     31                     32                     33
                      A                      A                      A
 Frequencies --    583.1443               596.7396               614.5801
 Red. masses --      3.7993                 2.2149                 3.1585
 Frc consts  --      0.7612                 0.4647                 0.7029
 IR Inten    --      4.0710                31.8118                20.3367

                     34                     35                     36
                      A                      A                      A
 Frequencies --    723.6696               748.1224               780.1191
 Red. masses --      5.0357                 5.7585                 3.4349
 Frc consts  --      1.5538                 1.8989                 1.2316
 IR Inten    --      4.4597                14.0387                 6.7540

                     37                     38                     39
                      A                      A                      A
 Frequencies --    783.6283               824.5373               843.6671
 Red. masses --      3.7740                 3.3015                 2.4028
 Frc consts  --      1.3655                 1.3225                 1.0076
 IR Inten    --      8.2108                 6.3345                 8.1222

                     40                     41                     42
                      A                      A                      A
 Frequencies --    865.6678               887.7398               901.5224
 Red. masses --      3.9552                 2.2129                 1.9369
 Frc consts  --      1.7463                 1.0275                 0.9275
 IR Inten    --      7.9271                20.4054                10.4039

                     43                     44                     45
                      A                      A                      A
 Frequencies --    911.3303               952.5794               973.4849
 Red. masses --      1.7574                 1.1689                 2.6707
 Frc consts  --      0.8600                 0.6249                 1.4912
 IR Inten    --      5.3133                39.2623                 1.9614

                     46                     47                     48
                      A                      A                      A
 Frequencies --    989.5348              1021.7856              1022.5253
 Red. masses --      3.6402                 1.0790                 1.4305
 Frc consts  --      2.1001                 0.6637                 0.8812
 IR Inten    --      6.2533                17.3063                 7.9530

                     49                     50                     51
                      A                      A                      A
 Frequencies --   1027.8826              1042.7696              1080.0423
 Red. masses --      3.2996                 3.5658                 2.0058
 Frc consts  --      2.0540                 2.2845                 1.3786
 IR Inten    --     41.3083                16.7224                14.6198

                     52                     53                     54
                      A                      A                      A
 Frequencies --   1134.5155              1177.2817              1199.3219
 Red. masses --      4.8935                 6.0944                11.1997
 Frc consts  --      3.7110                 4.9767                 9.4913
 IR Inten    --     26.4191                 6.8415                 2.6660

                     55                     56                     57
                      A                      A                      A
 Frequencies --   1384.0892              1401.2778              1479.2878
 Red. masses --     10.9080                10.3382                10.8825
 Frc consts  --     12.3118                11.9604                14.0309
 IR Inten    --     40.3774               457.0783                65.1195

                     58                     59                     60
                      A                      A                      A
 Frequencies --   1593.6405              1651.2286              1963.5599
 Red. masses --     10.9246                11.7442                12.5402
 Frc consts  --     16.3469                18.8664                28.4868
 IR Inten    --    481.2305               641.1284               208.0760

                     61                     62                     63
                      A                      A                      A
 Frequencies --   2454.6724              4463.7928              4483.3442
 Red. masses --     12.7184                 1.0325                 1.0310
 Frc consts  --     45.1511                12.1217                12.2094
 IR Inten    --    269.7448                 4.9545                23.3508

                     64                     65                     66
                      A                      A                      A
 Frequencies --   4539.1257              4546.6554              4611.5356
 Red. masses --      1.0582                 1.0603                 1.0878
 Frc consts  --     12.8453                12.9140                13.6302
 IR Inten    --     14.6551                14.8270                19.4106

                     67                     68                     69
                      A                      A                      A
 Frequencies --   4670.0601              4671.5763              4674.8116
 Red. masses --      1.1057                 1.1108                 1.1069
 Frc consts  --     14.2074                14.2823                14.2529
 IR Inten    --      2.3839                 3.9523                 1.8676

                     70                     71                     72
                      A                      A                      A
 Frequencies --   4680.6553              4687.9745              4695.9994
 Red. masses --      1.1094                 1.1078                 1.1082
 Frc consts  --     14.3202                14.3445                14.3983
 IR Inten    --      7.4946                 2.5741                 3.4226

 - Thermochemistry -
 -------------------
 Temperature   298.150 Kelvin.  Pressure   1.00000 Atm.
 Atom     1 has atomic number  6 and mass  12.00000

 Molecular mass:   207.07697 amu.
 Principal axes and moments of inertia in atomic units:
                           1         2         3
     Eigenvalues --  1454.420295603.222396265.18499
           X            0.99993   0.01097   0.00327
           Y           -0.01082   0.99902  -0.04292
           Z           -0.00374   0.04288   0.99907
 This molecule is an asymmetric top.
 Rotational symmetry number  1.
 Warning -- assumption of classical behavior for rotation
           may cause significant error
 Rotational temperatures (Kelvin)      0.05955     0.01546     0.01382
 Rotational constants (GHZ):           1.24087     0.32209     0.28806
   16 imaginary frequencies ignored.
 Zero-point vibrational energy     533444.9 (Joules/Mol)
                                  127.49638 (Kcal/Mol)
 Warning -- explicit consideration of  17 degrees of freedom as
           vibrations may cause significant error
 Vibrational temperatures:     98.31   152.17   261.71   336.46   352.91
          (Kelvin)            383.04   488.75   564.70   636.63   681.19
                              693.76   749.82   775.84   796.35   839.01
                              858.58   884.24  1041.20  1076.38  1122.42
                             1127.47  1186.33  1213.85  1245.50  1277.26
                             1297.09  1311.20  1370.55  1400.63  1423.72
                             1470.12  1471.19  1478.89  1500.31  1553.94
                             1632.31  1693.85  1725.56  1991.40  2016.13
                             2128.37  2292.89  2375.75  2825.12  3531.73
                             6422.40  6450.53  6530.79  6541.62  6634.97
                             6719.17  6721.36  6726.01  6734.42  6744.95
                             6756.50

 Zero-point correction=                           0.203178 (Hartree/Particle)
 Thermal correction to Energy=                    0.213201
 Thermal correction to Enthalpy=                  0.214145
 Thermal correction to Gibbs Free Energy=         0.166799
 Sum of electronic and zero-point Energies=           -721.186482
 Sum of electronic and thermal Energies=              -721.176460
 Sum of electronic and thermal Enthalpies=            -721.175516
 Sum of electronic and thermal Free Energies=         -721.222861

                     E (Thermal)             CV                S
                      KCal/Mol        Cal/Mol-Kelvin    Cal/Mol-Kelvin
 Total                  133.785             40.828             99.647
 Electronic               0.000              0.000              0.000
 Translational            0.889              2.981             41.888
 Rotational               0.889              2.981             32.301
 Vibrational            132.008             34.866             25.458
 Vibration     1          0.598              1.969              4.201
 Vibration     2          0.605              1.945              3.345
 Vibration     3          0.630              1.864              2.309
 Vibration     4          0.654              1.789              1.849
 Vibration     5          0.660              1.771              1.764
 Vibration     6          0.672              1.735              1.621
 Vibration     7          0.720              1.596              1.214
 Vibration     8          0.760              1.486              0.991
 Vibration     9          0.802              1.377              0.819
 Vibration    10          0.830              1.309              0.728
 Vibration    11          0.838              1.290              0.704
 Vibration    12          0.876              1.203              0.607
 Vibration    13          0.894              1.163              0.567
 Vibration    14          0.909              1.132              0.537
 Vibration    15          0.940              1.068              0.480
 Vibration    16          0.955              1.039              0.455
 Vibration    17          0.974              1.001              0.425

 Normal termination of Gaussian 16 at Mon Mar  6 10:42:57 2023.
