 Gaussian 16, Revision C.01,
 Gaussian 16:  ES64L-G16RevC.01  3-Jul-2019

 ----------------------------------------------------------------------
 #p pop=(regular,nbo,savenbos) freq=noraman def2svp empiricaldispersion
 =gd3bj output=wfx pbe1pbe
 ----------------------------------------------------------------------

 ----------------------------------------
 LLEUCU_Complex_0_Ligand_0_ON_Cu_oriented
 ----------------------------------------
 Symbolic Z-matrix:
 Charge = -1 Multiplicity = 1

                         Standard orientation:
 ---------------------------------------------------------------------
 Center     Atomic      Atomic             Coordinates (Angstroms)
 Number     Number       Type             X           Y           Z
 ---------------------------------------------------------------------
      1          7           0        0.957335    1.656449   -0.588862
      2          6           0        0.669673    0.389471    0.108209
      3          6           0       -0.529763   -0.380978   -0.431192
      4          6           0       -1.901117    0.234047   -0.102921
      5          6           0       -2.994806   -0.588528   -0.761170
      6          6           0       -2.144588    0.298279    1.401350
      7          1           0        1.061999    1.569366   -1.330948
      8          1           0        0.385696    2.262325   -0.491496
      9          1           0        0.581983    0.606174    0.935841
     10          1           0       -0.415520   -1.239437   -0.065559
     11          1           0       -0.433838   -0.397882   -1.416245
     12          1           0       -1.958314    1.097051   -0.496073
     13          1           0       -2.883755   -1.372064   -0.468435
     14          1           0       -2.873114   -0.645619   -1.631015
     15          1           0       -3.832470   -0.293539   -0.450385
     16          1           0       -1.582155    0.809466    1.888496
     17          1           0       -2.967931    0.576608    1.602556
     18          1           0       -2.154740   -0.531082    1.656450
     19          8           0        3.045715    0.268557    0.256755
     20          8           0        1.945783   -1.665488    0.043609
     21          6           0        1.973741   -0.429135    0.116712
 ---------------------------------------------------------------------

 SCF Done:  E(RPBE1PBE) =  -439.752002545     A.U. after   14 cycles

 The electronic state is 1-A.
 Alpha  occ. eigenvalues --  -18.92413 -18.90277 -14.15169 -10.08853 -10.08452
 Alpha  occ. eigenvalues --  -10.04890 -10.04877 -10.04511 -10.04027  -0.81362
 Alpha  occ. eigenvalues --   -0.78174  -0.73382  -0.70327  -0.64989  -0.62358
 Alpha  occ. eigenvalues --   -0.53637  -0.48284  -0.40375  -0.39499  -0.36998
 Alpha  occ. eigenvalues --   -0.34915  -0.32859  -0.32168  -0.29417  -0.27542
 Alpha  occ. eigenvalues --   -0.26826  -0.23389  -0.22097  -0.21891  -0.19479
 Alpha  occ. eigenvalues --   -0.17226  -0.16273  -0.08049  -0.02848  -0.02450
 Alpha  occ. eigenvalues --   -0.00080
 Alpha virt. eigenvalues --    0.18720   0.22358   0.23182   0.25067   0.26899
 Alpha virt. eigenvalues --    0.27527   0.27691   0.30205   0.31276   0.32921
 Alpha virt. eigenvalues --    0.33595   0.35481   0.36853   0.37307   0.38195

 Mulliken charges:
               1
     1  N    0.000635
     2  C    0.120495
     3  C    0.171725
     4  C   -0.216798
     5  C    0.397409
     6  C    0.370575
     7  H   -0.071742
     8  H   -0.029657
     9  H   -0.148427
    10  H   -0.072801
    11  H   -0.055515
    12  H   -0.077400
    13  H   -0.132693
    14  H   -0.101544
    15  H   -0.071133
    16  H   -0.065093
    17  H   -0.113918
    18  H   -0.104025
    19  O   -0.474968
    20  O   -0.418709
    21  C    0.093584
 Sum of Mulliken charges =  -1.00000

 Dipole moment (field-independent basis, Debye):
    X=            -11.5906    Y=              2.5737    Z=             -0.7806  Tot=             11.8985
 Quadrupole moment (field-independent basis, Debye-Ang):
   XX=            -94.6313   YY=            -65.7180   ZZ=            -54.0945
   XY=              3.0163   XZ=             -3.0836   YZ=             -0.9185

  Exact polarizability:      80.654       3.726      62.975       1.382       1.411      55.609
 Approx polarizability:      97.093       8.969      93.439       2.265       2.380      74.564

 Summary of Natural Population Analysis:

                                       Natural Population
                Natural  -----------------------------------------------
    Atom  No    Charge         Core      Valence    Rydberg      Total
 -----------------------------------------------------------------------
      N    1   -0.70150      1.99901     5.66785    0.03463     7.70150
      C    2   -0.05247      1.99850     4.02893    0.02504     6.05247
      C    3   -0.40253      1.99901     4.38343    0.02009     6.40253
      C    4   -0.14454      1.99908     4.13288    0.01259     6.14454
      C    5   -0.49390      1.99882     4.48382    0.01126     6.49390
      C    6   -0.50264      1.99886     4.49233    0.01145     6.50264
      H    7    0.24707      0.00000     0.74656    0.00637     0.75293
      H    8    0.27806      0.00000     0.71657    0.00538     0.72194
      H    9    0.11543      0.00000     0.87762    0.00694     0.88457
      H   10    0.18871      0.00000     0.80106    0.01024     0.81129
      H   11    0.17917      0.00000     0.81557    0.00526     0.82083
      H   12    0.14175      0.00000     0.84870    0.00956     0.85825
      H   13    0.14870      0.00000     0.84727    0.00403     0.85130
      H   14    0.15992      0.00000     0.83730    0.00278     0.84008
      H   15    0.16441      0.00000     0.83233    0.00327     0.83559
      H   16    0.17099      0.00000     0.82656    0.00246     0.82901
      H   17    0.15863      0.00000     0.83824    0.00313     0.84137
      H   18    0.15690      0.00000     0.83933    0.00377     0.84310
      O   19   -0.80144      1.99977     6.79335    0.00831     8.80144
      O   20   -0.79413      1.99974     6.78485    0.00953     8.79413
      C   21    0.78342      1.99949     3.14579    0.07130     5.21658
 =======================================================================
   * Total *   -1.00000     17.99229    53.74035    0.26737    72.00000

 ******   23 imaginary frequencies (negative Signs) ******

                      1                      2                      3
                      A                      A                      A
 Frequencies --  -3260.9094             -2867.4935             -2200.8346
 Red. masses --      1.0744                 1.0715                 1.0378
 Frc consts  --      6.7312                 5.1912                 2.9617
 IR Inten    --    158.3546                30.7405                 6.0083

                      4                      5                      6
                      A                      A                      A
 Frequencies --  -2098.7915             -2071.7759             -2054.8766
 Red. masses --      1.0649                 1.0217                 1.0730
 Frc consts  --      2.7638                 2.5838                 2.6695
 IR Inten    --    150.7711                 2.0141                16.5213

                      7                      8                      9
                      A                      A                      A
 Frequencies --  -1866.9292             -1816.5786             -1742.9527
 Red. masses --      1.0752                 1.0634                 1.0953
 Frc consts  --      2.2080                 2.0675                 1.9604
 IR Inten    --     11.3341                14.0497                 4.4088

                     10                     11                     12
                      A                      A                      A
 Frequencies --  -1700.3411             -1683.4647             -1383.0375
 Red. masses --      1.0709                 1.0495                 1.1397
 Frc consts  --      1.8242                 1.7525                 1.2844
 IR Inten    --      1.9759                20.6945                20.7944

                     13                     14                     15
                      A                      A                      A
 Frequencies --  -1357.1640             -1324.9660             -1173.9873
 Red. masses --      1.0944                 1.1828                 1.0402
 Frc consts  --      1.1877                 1.2234                 0.8447
 IR Inten    --     19.2133                21.9179                 0.4550

                     16                     17                     18
                      A                      A                      A
 Frequencies --   -905.5030              -851.1860              -685.5507
 Red. masses --      1.1095                 1.1231                 1.1762
 Frc consts  --      0.5360                 0.4794                 0.3257
 IR Inten    --     14.8080                10.2296                 4.4652

                     19                     20                     21
                      A                      A                      A
 Frequencies --   -630.0243              -609.6687              -581.8686
 Red. masses --      1.1115                 1.2527                 1.4263
 Frc consts  --      0.2600                 0.2743                 0.2845
 IR Inten    --     11.8011                 6.7031                 2.2546

                     22                     23                     24
                      A                      A                      A
 Frequencies --   -168.5350               -70.4902               240.7031
 Red. masses --      1.1505                 4.4134                 4.1382
 Frc consts  --      0.0193                 0.0129                 0.1413
 IR Inten    --     19.0926                 4.8155                 6.1819

                     25                     26                     27
                      A                      A                      A
 Frequencies --    299.8975               359.0854               432.5074
 Red. masses --      3.8094                 4.1779                 3.3782
 Frc consts  --      0.2019                 0.3174                 0.3723
 IR Inten    --      2.7623                 2.5763                 1.4154

                     28                     29                     30
                      A                      A                      A
 Frequencies --    441.2962               548.1744               591.0805
 Red. masses --      5.3307                 4.7600                 2.3082
 Frc consts  --      0.6116                 0.8427                 0.4751
 IR Inten    --      5.5518                 2.1355                 1.4375

                     31                     32                     33
                      A                      A                      A
 Frequencies --    650.4571               710.4452               720.6087
 Red. masses --      3.2367                 3.6997                 2.2719
 Frc consts  --      0.8069                 1.1002                 0.6951
 IR Inten    --      1.6290                11.3115                 0.8773

                     34                     35                     36
                      A                      A                      A
 Frequencies --    770.6732               786.3611               861.2113
 Red. masses --      5.6712                 4.2376                 9.1101
 Frc consts  --      1.9846                 1.5439                 3.9810
 IR Inten    --     23.7714                 9.4604                20.1236

                     37                     38                     39
                      A                      A                      A
 Frequencies --    895.3414              1033.3243              1104.4204
 Red. masses --      1.2670                 5.8078                 3.7245
 Frc consts  --      0.5984                 3.6537                 2.6766
 IR Inten    --      8.2738                 4.7498                 3.9758

                     40                     41                     42
                      A                      A                      A
 Frequencies --   1125.2504              1163.1629              1197.3697
 Red. masses --      5.6342                 5.6155                 6.2243
 Frc consts  --      4.2032                 4.4763                 5.2577
 IR Inten    --      5.5269                32.3681                 9.5947

                     43                     44                     45
                      A                      A                      A
 Frequencies --   1222.1866              1390.5694              1746.5565
 Red. masses --      4.9366                12.3201                12.8574
 Frc consts  --      4.3446                14.0362                23.1083
 IR Inten    --     11.3234               282.6048               403.6475

                     46                     47                     48
                      A                      A                      A
 Frequencies --   4226.6029              4729.8391              4809.2483
 Red. masses --      1.0763                 1.0872                 1.0664
 Frc consts  --     11.3284                14.3297                14.5321
 IR Inten    --     20.7739                24.0750                21.7481

                     49                     50                     51
                      A                      A                      A
 Frequencies --   4881.3055              5315.7793              5540.3933
 Red. masses --      1.0904                 1.0520                 1.0969
 Frc consts  --     15.3070                17.5139                19.8384
 IR Inten    --      7.6178                 7.3432                15.5424

                     52                     53                     54
                      A                      A                      A
 Frequencies --   5713.0247              5923.8359              6065.6629
 Red. masses --      1.0856                 1.0943                 1.0867
 Frc consts  --     20.8760                22.6253                23.5577
 IR Inten    --      2.7438                 2.7024                 3.2935

                     55                     56                     57
                      A                      A                      A
 Frequencies --   6226.3159              6306.6890              8087.7295
 Red. masses --      1.0695                 1.0890                 1.0757
 Frc consts  --     24.4284                25.5190                41.4559
 IR Inten    --      2.1586                 2.5683                10.4401

 - Thermochemistry -
 -------------------
 Temperature   298.150 Kelvin.  Pressure   1.00000 Atm.
 Atom     1 has atomic number  7 and mass  14.00307

 Molecular mass:   130.08680 amu.
 Principal axes and moments of inertia in atomic units:
                           1         2         3
     Eigenvalues --   594.296282110.956322302.94127
           X            0.99988   0.01456  -0.00593
           Y           -0.01447   0.99978   0.01529
           Z            0.00615  -0.01520   0.99987
 This molecule is an asymmetric top.
 Rotational symmetry number  1.
 Warning -- assumption of classical behavior for rotation
           may cause significant error
 Rotational temperatures (Kelvin)      0.14574     0.04103     0.03761
 Rotational constants (GHZ):           3.03677     0.85494     0.78367
   23 imaginary frequencies ignored.
 Zero-point vibrational energy     515094.7 (Joules/Mol)
                                  123.11059 (Kcal/Mol)
 Warning -- explicit consideration of   7 degrees of freedom as
           vibrations may cause significant error
 Vibrational temperatures:    346.32   431.49   516.64   622.28   634.93
          (Kelvin)            788.70   850.43   935.86  1022.17  1036.80
                             1108.83  1131.40  1239.09  1288.20  1486.72
                             1589.01  1618.98  1673.53  1722.75  1758.45
                             2000.72  2512.91  6081.14  6805.18  6919.44
                             7023.11  7648.22  7971.39  8219.77  8523.08
                             8727.14  8958.28  9073.92 11636.44

 Zero-point correction=                           0.196189 (Hartree/Particle)
 Thermal correction to Energy=                    0.201974
 Thermal correction to Enthalpy=                  0.202919
 Thermal correction to Gibbs Free Energy=         0.165369
 Sum of electronic and zero-point Energies=           -439.555813
 Sum of electronic and thermal Energies=              -439.550028
 Sum of electronic and thermal Enthalpies=            -439.549084
 Sum of electronic and thermal Free Energies=         -439.586634

                     E (Thermal)             CV                S
                      KCal/Mol        Cal/Mol-Kelvin    Cal/Mol-Kelvin
 Total                  126.741             22.551             79.030
 Electronic               0.000              0.000              0.000
 Translational            0.889              2.981             40.502
 Rotational               0.889              2.981             29.448
 Vibrational            124.963             16.590              9.081
 Vibration     1          0.658              1.778              1.798
 Vibration     2          0.692              1.674              1.417
 Vibration     3          0.734              1.557              1.126
 Vibration     4          0.793              1.399              0.850
 Vibration     5          0.801              1.380              0.823
 Vibration     6          0.903              1.144              0.548
 Vibration     7          0.948              1.051              0.465

 Normal termination of Gaussian 16 at Mon Mar  6 10:32:24 2023.
