 Gaussian 16, Revision C.01,
 Gaussian 16:  ES64L-G16RevC.01  3-Jul-2019

 ----------------------------------------------------------------------
 #p pop=(regular,nbo,savenbos) freq=noraman def2svp empiricaldispersion
 =gd3bj output=wfx pbe1pbe
 ----------------------------------------------------------------------

 ----------------------------------------
 LUCWAJ_Complex_0_Ligand_3_OO_Cu_oriented
 ----------------------------------------
 Symbolic Z-matrix:
 Charge = -1 Multiplicity = 1

                         Standard orientation:
 ---------------------------------------------------------------------
 Center     Atomic      Atomic             Coordinates (Angstroms)
 Number     Number       Type             X           Y           Z
 ---------------------------------------------------------------------
      1          8           0        0.651955   -2.501660    0.413472
      2          8           0        3.335985   -1.892445   -0.192928
      3          8           0       -0.131777    1.306121   -0.939292
      4          8           0        1.257551    1.702217    0.875415
      5          6           0        2.818600   -0.749549   -0.421695
      6          1           0        3.399159   -0.087302   -0.776919
      7          6           0        1.507171   -0.369270   -0.209348
      8          6           0        0.481143   -1.276120    0.124245
      9          6           0       -0.900314   -0.765060    0.069322
     10          6           0       -1.139289    0.505891   -0.468293
     11          6           0        1.167398    1.079368   -0.386419
     12          1           0        1.846245    1.492963   -0.994016
     13          6           0        1.138946    3.126599    0.804139
     14          1           0        1.204070    3.504845    1.706428
     15          1           0        1.859798    3.486572    0.246343
     16          1           0        0.272075    3.362851    0.411990
     17          6           0       -1.980361   -1.532792    0.502198
     18          6           0       -3.271346   -1.057863    0.380468
     19          6           0       -3.493023    0.202593   -0.171984
     20          1           0       -4.381848    0.523860   -0.261940
     21          6           0       -2.441483    0.990481   -0.587442
     22          1           0       -1.826222   -2.389106    0.884565
     23          1           0       -4.005263   -1.587566    0.670956
     24          1           0       -2.602374    1.853356   -0.951885
 ---------------------------------------------------------------------

 SCF Done:  E(RPBE1PBE) =  -724.054726195     A.U. after   16 cycles

 The electronic state is 1-A.
 Alpha  occ. eigenvalues --  -19.11344 -19.08241 -18.98366 -18.97841 -10.18701
 Alpha  occ. eigenvalues --  -10.16855 -10.13094 -10.12386 -10.10736 -10.10138
 Alpha  occ. eigenvalues --  -10.09905 -10.09804 -10.09797 -10.09591 -10.03539
 Alpha  occ. eigenvalues --   -0.97453  -0.90716  -0.83135  -0.81011  -0.75453
 Alpha  occ. eigenvalues --   -0.67237  -0.65453  -0.64493  -0.60540  -0.54376
 Alpha  occ. eigenvalues --   -0.53978  -0.49238  -0.47225  -0.43582  -0.41421
 Alpha  occ. eigenvalues --   -0.39991  -0.39271  -0.36930  -0.36343  -0.34704
 Alpha  occ. eigenvalues --   -0.34095  -0.31225  -0.30596  -0.29777  -0.27634
 Alpha  occ. eigenvalues --   -0.25815  -0.24856  -0.24093  -0.23033  -0.22336
 Alpha  occ. eigenvalues --   -0.21076  -0.18686  -0.17942  -0.16281  -0.13618
 Alpha  occ. eigenvalues --   -0.11204  -0.08422  -0.04691  -0.04414
 Alpha virt. eigenvalues --    0.09955   0.12857   0.17871   0.19408   0.20500
 Alpha virt. eigenvalues --    0.22321   0.23656   0.25322   0.25596   0.26849
 Alpha virt. eigenvalues --    0.27711   0.28504   0.30285   0.30608   0.32545

 Mulliken charges:
               1
     1  O   -0.341821
     2  O   -0.376212
     3  O   -0.377626
     4  O   -0.412139
     5  C    0.228093
     6  H   -0.146515
     7  C   -0.291730
     8  C    0.209064
     9  C   -0.057874
    10  C    0.205273
    11  C    0.421608
    12  H   -0.072963
    13  C    0.329374
    14  H   -0.022216
    15  H   -0.051555
    16  H   -0.031552
    17  C    0.069328
    18  C    0.064058
    19  C    0.081101
    20  H   -0.104875
    21  C    0.018443
    22  H   -0.109037
    23  H   -0.107017
    24  H   -0.123212
 Sum of Mulliken charges =  -1.00000

 Dipole moment (field-independent basis, Debye):
    X=             -6.2412    Y=              8.3328    Z=             -0.6868  Tot=             10.4336
 Quadrupole moment (field-independent basis, Debye-Ang):
   XX=           -111.7822   YY=           -104.6748   ZZ=            -90.7227
   XY=             18.3076   XZ=             -2.1387   YZ=              0.7653

  Exact polarizability:     179.693      -0.085     132.055      -8.226     -12.755      70.850
 Approx polarizability:     261.163      -5.683     217.868     -14.095     -35.821     113.280

 Summary of Natural Population Analysis:

                                       Natural Population
                Natural  -----------------------------------------------
    Atom  No    Charge         Core      Valence    Rydberg      Total
 -----------------------------------------------------------------------
      O    1   -0.66122      1.99978     6.65281    0.00863     8.66122
      O    2   -0.65479      1.99980     6.64548    0.00951     8.65479
      O    3   -0.58897      1.99965     6.57911    0.01020     8.58897
      O    4   -0.61241      1.99971     6.60110    0.01159     8.61241
      C    5    0.34680      1.99900     3.61648    0.03772     5.65320
      H    6    0.07447      0.00000     0.91912    0.00640     0.92553
      C    7   -0.36798      1.99890     4.34836    0.02072     6.36798
      C    8    0.46073      1.99886     3.49521    0.04520     5.53927
      C    9   -0.15304      1.99884     4.13599    0.01821     6.15304
      C   10    0.35689      1.99866     3.61836    0.02609     5.64311
      C   11    0.46233      1.99885     3.50714    0.03168     5.53767
      H   12    0.14498      0.00000     0.84793    0.00708     0.85502
      C   13   -0.17478      1.99902     4.16441    0.01135     6.17478
      H   14    0.16199      0.00000     0.83594    0.00207     0.83801
      H   15    0.14078      0.00000     0.85528    0.00394     0.85922
      H   16    0.15368      0.00000     0.84100    0.00532     0.84632
      C   17   -0.13438      1.99905     4.11707    0.01827     6.13438
      C   18   -0.22407      1.99911     4.21061    0.01435     6.22407
      C   19   -0.18947      1.99912     4.17623    0.01412     6.18947
      H   20    0.16512      0.00000     0.83170    0.00318     0.83488
      C   21   -0.24546      1.99900     4.23068    0.01579     6.24546
      H   22    0.19080      0.00000     0.80231    0.00689     0.80920
      H   23    0.16765      0.00000     0.82923    0.00312     0.83235
      H   24    0.18034      0.00000     0.81580    0.00386     0.81966
 =======================================================================
   * Total *   -1.00000     29.98734    77.67734    0.33533   108.00000

 ******   14 imaginary frequencies (negative Signs) ******

                      1                      2                      3
                      A                      A                      A
 Frequencies --  -1271.0875             -1267.4012             -1253.6540
 Red. masses --      1.0316                 1.0850                 1.0150
 Frc consts  --      0.9820                 1.0269                 0.9398
 IR Inten    --     11.2074                55.0127                 0.7790

                      4                      5                      6
                      A                      A                      A
 Frequencies --  -1162.8020             -1067.5400              -984.2248
 Red. masses --      1.0505                 1.0217                 1.0320
 Frc consts  --      0.8369                 0.6860                 0.5890
 IR Inten    --      0.3243                 1.9845                 0.1767

                      7                      8                      9
                      A                      A                      A
 Frequencies --   -697.3845              -695.8589              -681.7088
 Red. masses --      1.1880                 1.1225                 1.1799
 Frc consts  --      0.3404                 0.3202                 0.3231
 IR Inten    --      0.8172                 2.3493                 9.6503

                     10                     11                     12
                      A                      A                      A
 Frequencies --   -679.4216              -519.6344              -512.9979
 Red. masses --      1.1926                 1.1108                 1.3936
 Frc consts  --      0.3243                 0.1767                 0.2161
 IR Inten    --      4.0168                17.3058                10.8317

                     13                     14                     15
                      A                      A                      A
 Frequencies --   -461.4069               -98.5980                69.5621
 Red. masses --      1.4005                 5.7782                12.1189
 Frc consts  --      0.1757                 0.0331                 0.0346
 IR Inten    --      4.7890                 1.5199                 0.1332

                     16                     17                     18
                      A                      A                      A
 Frequencies --    154.9474               230.1827               303.6870
 Red. masses --      7.0297                 9.7404                10.0654
 Frc consts  --      0.0994                 0.3041                 0.5469
 IR Inten    --      2.0443                 2.1882                 2.3362

                     19                     20                     21
                      A                      A                      A
 Frequencies --    357.4704               408.1263               426.1454
 Red. masses --      7.6190                11.1075                 8.7849
 Frc consts  --      0.5736                 1.0901                 0.9400
 IR Inten    --      3.5906                 4.2229                 1.5493

                     22                     23                     24
                      A                      A                      A
 Frequencies --    470.6546               492.7776               537.0324
 Red. masses --      4.5243                 5.6968                 9.8704
 Frc consts  --      0.5905                 0.8150                 1.6772
 IR Inten    --     12.3099                 0.9205                 0.3835

                     25                     26                     27
                      A                      A                      A
 Frequencies --    556.2107               577.6869               639.4292
 Red. masses --      7.5461                 3.1051                 9.5698
 Frc consts  --      1.3755                 0.6105                 2.3054
 IR Inten    --      1.9907                17.8108                 1.5501

                     28                     29                     30
                      A                      A                      A
 Frequencies --    649.4449               660.6056               691.9886
 Red. masses --      7.1225                 3.1752                 3.0093
 Frc consts  --      1.7700                 0.8164                 0.8490
 IR Inten    --      2.7582                 2.5493                25.4540

                     31                     32                     33
                      A                      A                      A
 Frequencies --    705.0564               764.3071               781.6300
 Red. masses --      3.5595                 3.7158                 4.6601
 Frc consts  --      1.0425                 1.2789                 1.6774
 IR Inten    --      0.1788                14.4303                 8.2205

                     34                     35                     36
                      A                      A                      A
 Frequencies --    798.5099               806.3598               846.5918
 Red. masses --      2.3404                 2.9794                 4.4492
 Frc consts  --      0.8792                 1.1414                 1.8788
 IR Inten    --     55.1006                40.2811                18.9877

                     37                     38                     39
                      A                      A                      A
 Frequencies --    863.2671               876.5769               943.4702
 Red. masses --      3.3317                 8.4807                 3.4294
 Frc consts  --      1.4629                 3.8394                 1.7985
 IR Inten    --      6.5149                 7.0111               135.3224

                     40                     41                     42
                      A                      A                      A
 Frequencies --    970.3879              1033.7165              1067.4771
 Red. masses --      4.4311                 3.4772                 2.3841
 Frc consts  --      2.4584                 2.1892                 1.6007
 IR Inten    --     31.9327                47.3010                28.2600

                     43                     44                     45
                      A                      A                      A
 Frequencies --   1102.8899              1129.6699              1155.2800
 Red. masses --      3.5458                 1.0559                 2.3089
 Frc consts  --      2.5411                 0.7939                 1.8156
 IR Inten    --     27.4047                12.3308               102.2005

                     46                     47                     48
                      A                      A                      A
 Frequencies --   1187.6242              1243.3078              1253.8973
 Red. masses --      1.4550                 6.9661                 8.7073
 Frc consts  --      1.2091                 6.3445                 8.0660
 IR Inten    --     90.3623                75.7120                18.8166

                     49                     50                     51
                      A                      A                      A
 Frequencies --   1345.1336              1422.5500              1432.9814
 Red. masses --      9.5475                 9.3813                10.0397
 Frc consts  --     10.1782                11.1854                12.1465
 IR Inten    --      7.2949                17.4167                42.4187

                     52                     53                     54
                      A                      A                      A
 Frequencies --   1455.6176              1482.7897              1610.2751
 Red. masses --      9.2502                11.1672                11.7258
 Frc consts  --     11.5477                14.4662                17.9140
 IR Inten    --     43.0844                45.5881               187.8997

                     55                     56                     57
                      A                      A                      A
 Frequencies --   1642.5733              1667.4059              1681.5551
 Red. masses --     10.7824                10.7963                11.2549
 Frc consts  --     17.1402                17.6851                18.7506
 IR Inten    --    701.2734                17.4036               231.6857

                     58                     59                     60
                      A                      A                      A
 Frequencies --   4119.1443              4229.4057              4414.4277
 Red. masses --      1.0881                 1.0299                 1.1074
 Frc consts  --     10.8776                10.8547                12.7151
 IR Inten    --     49.3644                52.4166                19.9714

                     61                     62                     63
                      A                      A                      A
 Frequencies --   4424.3414              4723.7535              4753.2221
 Red. masses --      1.1081                 1.0860                 1.0871
 Frc consts  --     12.7798                14.2776                14.4704
 IR Inten    --      8.8530               123.3970                 2.5651

                     64                     65                     66
                      A                      A                      A
 Frequencies --   4761.3665              4773.8544              4777.7579
 Red. masses --      1.0885                 1.0898                 1.0922
 Frc consts  --     14.5396                14.6329                14.6896
 IR Inten    --      3.2849                 0.0494                 9.8536

 - Thermochemistry -
 -------------------
 Temperature   298.150 Kelvin.  Pressure   1.00000 Atm.
 Atom     1 has atomic number  8 and mass  15.99491

 Molecular mass:   205.05008 amu.
 Principal axes and moments of inertia in atomic units:
                           1         2         3
     Eigenvalues --  2014.776693263.975414842.92823
           X            0.99877   0.04957  -0.00311
           Y           -0.04955   0.99876   0.00385
           Z            0.00329  -0.00369   0.99999
 This molecule is an asymmetric top.
 Rotational symmetry number  1.
 Warning -- assumption of classical behavior for rotation
           may cause significant error
 Rotational temperatures (Kelvin)      0.04299     0.02654     0.01788
 Rotational constants (GHZ):           0.89575     0.55293     0.37265
   14 imaginary frequencies ignored.
 Zero-point vibrational energy     475360.8 (Joules/Mol)
                                  113.61397 (Kcal/Mol)
 Warning -- explicit consideration of  12 degrees of freedom as
           vibrations may cause significant error
 Vibrational temperatures:    100.08   222.93   331.18   436.94   514.32
          (Kelvin)            587.20   613.13   677.17   709.00   772.67
                              800.26   831.16   920.00   934.41   950.46
                              995.62  1014.42  1099.67  1124.59  1148.88
                             1160.17  1218.06  1242.05  1261.20  1357.44
                             1396.17  1487.29  1535.86  1586.81  1625.34
                             1662.19  1708.73  1788.84  1804.08  1935.35
                             2046.73  2061.74  2094.31  2133.40  2316.83
                             2363.30  2399.03  2419.38  5926.53  6085.17
                             6351.38  6365.64  6796.43  6838.83  6850.54
                             6868.51  6874.13

 Zero-point correction=                           0.181055 (Hartree/Particle)
 Thermal correction to Energy=                    0.189670
 Thermal correction to Enthalpy=                  0.190614
 Thermal correction to Gibbs Free Energy=         0.146173
 Sum of electronic and zero-point Energies=           -723.873671
 Sum of electronic and thermal Energies=              -723.865056
 Sum of electronic and thermal Enthalpies=            -723.864112
 Sum of electronic and thermal Free Energies=         -723.908553

                     E (Thermal)             CV                S
                      KCal/Mol        Cal/Mol-Kelvin    Cal/Mol-Kelvin
 Total                  119.020             35.968             93.534
 Electronic               0.000              0.000              0.000
 Translational            0.889              2.981             41.858
 Rotational               0.889              2.981             31.832
 Vibrational            117.242             30.006             19.843
 Vibration     1          0.598              1.969              4.166
 Vibration     2          0.620              1.897              2.611
 Vibration     3          0.652              1.795              1.878
 Vibration     4          0.695              1.667              1.396
 Vibration     5          0.733              1.560              1.133
 Vibration     6          0.773              1.453              0.933
 Vibration     7          0.788              1.413              0.871
 Vibration     8          0.828              1.315              0.736
 Vibration     9          0.848              1.266              0.676
 Vibration    10          0.892              1.168              0.572
 Vibration    11          0.912              1.126              0.531
 Vibration    12          0.934              1.080              0.490

 Normal termination of Gaussian 16 at Mon Mar  6 10:42:25 2023.
