 Gaussian 16, Revision C.01,
 Gaussian 16:  ES64L-G16RevC.01  3-Jul-2019

 ----------------------------------------------------------------------
 #p pop=(regular,nbo,savenbos) freq=noraman def2svp empiricaldispersion
 =gd3bj output=wfx pbe1pbe
 ----------------------------------------------------------------------

 ----------------------------------------
 LUNYOJ_Complex_2_Ligand_0_NN_Cu_oriented
 ----------------------------------------
 Symbolic Z-matrix:
 Charge =  0 Multiplicity = 1

                         Standard orientation:
 ---------------------------------------------------------------------
 Center     Atomic      Atomic             Coordinates (Angstroms)
 Number     Number       Type             X           Y           Z
 ---------------------------------------------------------------------
      1          7           0        1.362017    0.403435    0.283819
      2          6           0        0.745580    1.674725   -0.152517
      3          1           0        0.860804    1.761029   -1.141552
      4          6           0        1.378090    2.905808    0.523500
      5          1           0        1.212437    2.874943    1.499125
      6          1           0        2.357187    2.905036    0.373727
      7          6           0        0.762323    4.178557   -0.067869
      8          1           0        1.142618    4.970226    0.388550
      9          1           0        0.993682    4.239364   -1.029080
     10          6           0       -0.750999    4.182956    0.087959
     11          1           0       -1.123976    4.973911   -0.374616
     12          1           0       -0.979379    4.256651    1.048495
     13          6           0       -1.390671    2.912517   -0.488268
     14          1           0       -1.252153    2.882704   -1.468354
     15          1           0       -2.365122    2.917441   -0.311612
     16          6           0       -0.751241    1.678929    0.165090
     17          1           0       -0.860063    1.757610    1.156083
     18          7           0       -1.353186    0.393467   -0.266910
     19          6           0        2.573931    0.164730   -0.058660
     20          8           0        3.320971    0.987298   -0.838298
     21          6           0        4.600309    0.363509   -1.167412
     22          1           0        5.357710    0.934059   -0.880968
     23          1           0        4.673345    0.196280   -2.139924
     24          6           0        4.579664   -0.928392   -0.401066
     25          6           0        3.370486   -1.021741    0.278077
     26          6           0       -2.567746    0.146871    0.045001
     27          8           0       -3.328292    0.997925    0.793886
     28          6           0       -4.630283    0.407824    1.065513
     29          1           0       -5.358049    0.981574    0.716150
     30          1           0       -4.763013    0.275856    2.037941
     31          6           0       -4.592762   -0.905685    0.346825
     32          6           0       -5.556511   -1.925225    0.251504
     33          1           0       -6.395599   -1.851040    0.690917
     34          6           0       -5.242907   -3.033479   -0.501031
     35          1           0       -5.876096   -3.736902   -0.575142
     36          6           0       -4.011984   -3.153564   -1.161382
     37          1           0       -3.828822   -3.926425   -1.682488
     38          6           0       -3.060621   -2.150898   -1.059859
     39          1           0       -2.225711   -2.217622   -1.509430
     40          6           0       -3.370086   -1.043969   -0.277852
     41          6           0        5.529926   -1.934125   -0.302859
     42          1           0        6.345472   -1.888178   -0.788970
     43          6           0        5.250274   -3.016014    0.531487
     44          1           0        5.886121   -3.716108    0.616647
     45          6           0        4.047045   -3.088009    1.247288
     46          1           0        3.885216   -3.827373    1.821545
     47          6           0        3.094047   -2.095609    1.127049
     48          1           0        2.274957   -2.141431    1.606774
 ---------------------------------------------------------------------

 SCF Done:  E(RPBE1PBE) =  -1109.24393860     A.U. after   14 cycles

 The electronic state is 1-A.
 Alpha  occ. eigenvalues --  -19.24136 -19.23966 -14.34743 -14.34721 -10.30582
 Alpha  occ. eigenvalues --  -10.30572 -10.28174 -10.28033 -10.24993 -10.24908
 Alpha  occ. eigenvalues --  -10.24148 -10.24119 -10.23437 -10.23410 -10.23201
 Alpha  occ. eigenvalues --  -10.23039 -10.22975 -10.22936 -10.22768 -10.22704
 Alpha  occ. eigenvalues --  -10.22231 -10.22163 -10.18668 -10.18650 -10.18378
 Alpha  occ. eigenvalues --  -10.18366  -1.09475  -1.09306  -0.91451  -0.89310
 Alpha  occ. eigenvalues --   -0.89123  -0.88994  -0.83469  -0.80204  -0.80167
 Alpha  occ. eigenvalues --   -0.78944  -0.78728  -0.75549  -0.75259  -0.73375
 Alpha  occ. eigenvalues --   -0.72118  -0.66830  -0.66590  -0.63535  -0.63470
 Alpha  occ. eigenvalues --   -0.62721  -0.61676  -0.59151  -0.58983  -0.57566
 Alpha  occ. eigenvalues --   -0.53904  -0.53777  -0.52625  -0.51834  -0.51737
 Alpha  occ. eigenvalues --   -0.51644  -0.49561  -0.49514  -0.49114  -0.48184
 Alpha  occ. eigenvalues --   -0.46679  -0.46633  -0.46163  -0.45616  -0.45129
 Alpha  occ. eigenvalues --   -0.44893  -0.41688  -0.41275  -0.40251  -0.39671
 Alpha  occ. eigenvalues --   -0.39138  -0.38764  -0.38660  -0.38113  -0.37829
 Alpha  occ. eigenvalues --   -0.37776  -0.36903  -0.35944  -0.35635  -0.35572
 Alpha  occ. eigenvalues --   -0.35517  -0.33262  -0.32796  -0.30635  -0.28604
 Alpha  occ. eigenvalues --   -0.28351  -0.27218  -0.27096  -0.24691  -0.24627
 Alpha  occ. eigenvalues --   -0.23408  -0.23122
 Alpha virt. eigenvalues --   -0.03101  -0.02754  -0.01069  -0.00790   0.07048
 Alpha virt. eigenvalues --    0.07644   0.09031   0.09279   0.09330   0.09993
 Alpha virt. eigenvalues --    0.10796   0.11394   0.11520   0.12099   0.13975

 Mulliken charges:
               1
     1  N   -0.212800
     2  C    0.060396
     3  H   -0.031866
     4  C    0.111337
     5  H   -0.024810
     6  H   -0.015822
     7  C    0.054495
     8  H   -0.020703
     9  H   -0.021886
    10  C    0.050466
    11  H   -0.020804
    12  H   -0.022285
    13  C    0.116153
    14  H   -0.024958
    15  H   -0.014682
    16  C    0.067611
    17  H   -0.031164
    18  N   -0.211848
    19  C    0.156987
    20  O   -0.391108
    21  C    0.502201
    22  H    0.010678
    23  H    0.010951
    24  C   -0.223784
    25  C    0.038929
    26  C    0.153378
    27  O   -0.393397
    28  C    0.506043
    29  H    0.009406
    30  H    0.009903
    31  C   -0.236825
    32  C    0.060613
    33  H   -0.092734
    34  C    0.091592
    35  H   -0.069241
    36  C    0.083370
    37  H   -0.069698
    38  C    0.076748
    39  H   -0.078781
    40  C    0.043985
    41  C    0.049218
    42  H   -0.092621
    43  C    0.090236
    44  H   -0.068476
    45  C    0.083584
    46  H   -0.069391
    47  C    0.080481
    48  H   -0.079076
 Sum of Mulliken charges =  -0.00000

 Dipole moment (field-independent basis, Debye):
    X=             -0.0423    Y=             -1.5046    Z=             -0.0906  Tot=              1.5079
 Quadrupole moment (field-independent basis, Debye-Ang):
   XX=           -107.3762   YY=           -139.8596   ZZ=           -147.0459
   XY=             -0.2007   XZ=             -9.4321   YZ=             -0.0386

  Exact polarizability:     299.987      -1.957     260.742     -24.826      -0.465     156.340
 Approx polarizability:     412.586      -3.945     355.665     -60.565      -0.760     256.484

 Summary of Natural Population Analysis:

                                       Natural Population
                Natural  -----------------------------------------------
    Atom  No    Charge         Core      Valence    Rydberg      Total
 -----------------------------------------------------------------------
      N    1   -0.52840      1.99925     5.51134    0.01780     7.52840
      C    2   -0.02562      1.99895     4.00113    0.02554     6.02562
      H    3    0.18992      0.00000     0.80381    0.00628     0.81008
      C    4   -0.38426      1.99909     4.37050    0.01467     6.38426
      H    5    0.18855      0.00000     0.80682    0.00463     0.81145
      H    6    0.20678      0.00000     0.78946    0.00377     0.79322
      C    7   -0.37263      1.99913     4.36130    0.01221     6.37263
      H    8    0.19442      0.00000     0.80198    0.00360     0.80558
      H    9    0.18576      0.00000     0.81014    0.00410     0.81424
      C   10   -0.37243      1.99912     4.36108    0.01223     6.37243
      H   11    0.19429      0.00000     0.80211    0.00360     0.80571
      H   12    0.18552      0.00000     0.81038    0.00411     0.81448
      C   13   -0.38567      1.99908     4.37218    0.01440     6.38567
      H   14    0.18860      0.00000     0.80674    0.00466     0.81140
      H   15    0.20882      0.00000     0.78739    0.00379     0.79118
      C   16   -0.02701      1.99895     4.00267    0.02539     6.02701
      H   17    0.19117      0.00000     0.80256    0.00627     0.80883
      N   18   -0.52814      1.99924     5.51102    0.01787     7.52814
      C   19    0.59957      1.99895     3.36407    0.03741     5.40043
      O   20   -0.57296      1.99968     6.56373    0.00955     8.57296
      C   21    0.00871      1.99885     3.97751    0.01493     5.99129
      H   22    0.18623      0.00000     0.81041    0.00336     0.81377
      H   23    0.18544      0.00000     0.81101    0.00355     0.81456
      C   24   -0.04441      1.99894     4.03030    0.01518     6.04441
      C   25   -0.10834      1.99882     4.09265    0.01687     6.10834
      C   26    0.60158      1.99896     3.36185    0.03761     5.39842
      O   27   -0.57586      1.99969     6.56665    0.00952     8.57586
      C   28    0.00688      1.99886     3.97922    0.01504     5.99312
      H   29    0.18599      0.00000     0.81057    0.00344     0.81401
      H   30    0.18599      0.00000     0.81046    0.00355     0.81401
      C   31   -0.04052      1.99893     4.02639    0.01520     6.04052
      C   32   -0.18261      1.99901     4.16893    0.01467     6.18261
      H   33    0.18387      0.00000     0.81321    0.00292     0.81613
      C   34   -0.16139      1.99911     4.14847    0.01381     6.16139
      H   35    0.17932      0.00000     0.81771    0.00297     0.82068
      C   36   -0.17273      1.99912     4.15989    0.01373     6.17273
      H   37    0.18069      0.00000     0.81646    0.00285     0.81931
      C   38   -0.12932      1.99902     4.11517    0.01512     6.12932
      H   39    0.19699      0.00000     0.79948    0.00354     0.80301
      C   40   -0.11461      1.99880     4.09912    0.01669     6.11461
      C   41   -0.18614      1.99899     4.17246    0.01468     6.18614
      H   42    0.18411      0.00000     0.81296    0.00293     0.81589
      C   43   -0.15717      1.99912     4.14421    0.01384     6.15717
      H   44    0.17852      0.00000     0.81859    0.00289     0.82148
      C   45   -0.17597      1.99911     4.16321    0.01365     6.17597
      H   46    0.18111      0.00000     0.81601    0.00288     0.81889
      C   47   -0.12921      1.99902     4.11509    0.01510     6.12921
      H   48    0.19661      0.00000     0.79984    0.00355     0.80339
 =======================================================================
   * Total *    0.00000     51.97583   131.49824    0.52593   184.00000

 ******   29 imaginary frequencies (negative Signs) ******

                      1                      2                      3
                      A                      A                      A
 Frequencies --  -1262.1722             -1260.5582             -1152.2212
 Red. masses --      1.0735                 1.0799                 1.0310
 Frc consts  --      1.0076                 1.0110                 0.8064
 IR Inten    --     43.2781                77.6547                 0.1171

                      4                      5                      6
                      A                      A                      A
 Frequencies --  -1148.7565             -1067.7001             -1062.6843
 Red. masses --      1.0310                 1.0171                 1.0164
 Frc consts  --      0.8016                 0.6831                 0.6763
 IR Inten    --      0.0375                 0.4921                 0.4644

                      7                      8                      9
                      A                      A                      A
 Frequencies --   -972.2776              -970.6492              -927.9915
 Red. masses --      1.0261                 1.0261                 1.0493
 Frc consts  --      0.5715                 0.5696                 0.5324
 IR Inten    --      0.0028                 0.0031                 3.7952

                     10                     11                     12
                      A                      A                      A
 Frequencies --   -891.9310              -879.1771              -876.7281
 Red. masses --      1.0241                 1.0653                 1.0659
 Frc consts  --      0.4800                 0.4852                 0.4827
 IR Inten    --      2.0580                 3.1994                 4.0967

                     13                     14                     15
                      A                      A                      A
 Frequencies --   -869.6256              -859.4484              -675.7908
 Red. masses --      1.0399                 1.0435                 1.1093
 Frc consts  --      0.4634                 0.4541                 0.2985
 IR Inten    --      4.0250                 0.8727                 1.0013

                     16                     17                     18
                      A                      A                      A
 Frequencies --   -674.6293              -658.2002              -655.2870
 Red. masses --      1.1208                 1.1940                 1.1834
 Frc consts  --      0.3006                 0.3048                 0.2994
 IR Inten    --      1.2570                 1.2158                 1.8619

                     19                     20                     21
                      A                      A                      A
 Frequencies --   -494.8783              -487.6568              -476.4466
 Red. masses --      1.2256                 1.2099                 1.1378
 Frc consts  --      0.1769                 0.1695                 0.1522
 IR Inten    --      0.6607                12.6574                16.4626

                     22                     23                     24
                      A                      A                      A
 Frequencies --   -475.3399              -372.8683              -367.0236
 Red. masses --      1.1064                 2.1491                 2.1775
 Frc consts  --      0.1473                 0.1760                 0.1728
 IR Inten    --     15.4592                 0.3106                 0.3158

                     25                     26                     27
                      A                      A                      A
 Frequencies --   -357.6842              -344.5845              -268.4113
 Red. masses --      1.9506                 2.0431                 1.4928
 Frc consts  --      0.1470                 0.1429                 0.0634
 IR Inten    --      0.0473                 0.8717                 1.6687

                     28                     29                     30
                      A                      A                      A
 Frequencies --   -263.4521              -198.8279                56.9380
 Red. masses --      1.5257                 2.4399                 7.4052
 Frc consts  --      0.0624                 0.0568                 0.0141
 IR Inten    --      2.8726                 1.3365                 0.3389

                     31                     32                     33
                      A                      A                      A
 Frequencies --    101.2851               116.2084               129.4832
 Red. masses --      2.4182                 2.0115                 4.6327
 Frc consts  --      0.0146                 0.0160                 0.0458
 IR Inten    --      0.1048                 1.4942                 1.8935

                     34                     35                     36
                      A                      A                      A
 Frequencies --    138.1019               151.9774               164.9853
 Red. masses --      4.3219                 2.7195                 3.8264
 Frc consts  --      0.0486                 0.0370                 0.0614
 IR Inten    --      0.4747                 0.2322                 4.5687

                     37                     38                     39
                      A                      A                      A
 Frequencies --    190.3738               220.1106               256.0857
 Red. masses --      5.2041                 1.3818                 5.3111
 Frc consts  --      0.1111                 0.0394                 0.2052
 IR Inten    --      0.1933                 7.5914                 2.3796

                     40                     41                     42
                      A                      A                      A
 Frequencies --    261.8911               310.7315               329.3535
 Red. masses --      5.7765                 2.6013                 4.1990
 Frc consts  --      0.2334                 0.1480                 0.2684
 IR Inten    --      1.3232                 2.7917                 0.2229

                     43                     44                     45
                      A                      A                      A
 Frequencies --    364.9402               447.3369               450.3855
 Red. masses --      3.4537                 5.4619                 5.2154
 Frc consts  --      0.2710                 0.6440                 0.6233
 IR Inten    --     13.4799                 0.0682                 3.4561

                     46                     47                     48
                      A                      A                      A
 Frequencies --    514.7758               534.9935               537.1092
 Red. masses --      1.3553                 2.2566                 3.2047
 Frc consts  --      0.2116                 0.3805                 0.5447
 IR Inten    --      6.3313                19.1645                 3.4768

                     49                     50                     51
                      A                      A                      A
 Frequencies --    555.9250               557.8155               575.4737
 Red. masses --      2.1883                 3.5039                 4.4153
 Frc consts  --      0.3985                 0.6424                 0.8615
 IR Inten    --      0.4300                12.2411                16.7160

                     52                     53                     54
                      A                      A                      A
 Frequencies --    579.7677               608.3269               615.8619
 Red. masses --      6.1662                 3.9744                 3.1683
 Frc consts  --      1.2212                 0.8665                 0.7080
 IR Inten    --      2.8253                 1.0516                11.5247

                     55                     56                     57
                      A                      A                      A
 Frequencies --    689.0108               697.8528               707.3254
 Red. masses --      4.7096                 4.1033                 4.1917
 Frc consts  --      1.3173                 1.1774                 1.2356
 IR Inten    --      1.2746                 3.2437                 2.1468

                     58                     59                     60
                      A                      A                      A
 Frequencies --    707.8318               711.4598               728.4888
 Red. masses --      3.7439                 3.1173                 3.2771
 Frc consts  --      1.1052                 0.9297                 1.0247
 IR Inten    --      0.6668                 0.1081                 0.2732

                     61                     62                     63
                      A                      A                      A
 Frequencies --    733.0870               737.9834               742.7977
 Red. masses --      3.6469                 4.8738                 3.2695
 Frc consts  --      1.1547                 1.5639                 1.0629
 IR Inten    --      0.8959                 6.8279                 6.4520

                     64                     65                     66
                      A                      A                      A
 Frequencies --    757.0046               759.0591               786.0507
 Red. masses --      5.0081                 4.6708                 2.2911
 Frc consts  --      1.6909                 1.5856                 0.8340
 IR Inten    --      2.4909                 3.0109                 7.0875

                     67                     68                     69
                      A                      A                      A
 Frequencies --    790.3818               796.5446               809.0443
 Red. masses --      1.2003                 2.9316                 2.7976
 Frc consts  --      0.4418                 1.0959                 1.0789
 IR Inten    --      1.1990                 0.3104                 0.1410

                     70                     71                     72
                      A                      A                      A
 Frequencies --    838.4435               839.6515               864.8276
 Red. masses --      3.0530                 3.4172                 5.6958
 Frc consts  --      1.2645                 1.4194                 2.5099
 IR Inten    --      7.8063                 6.7496                 0.0714

                     73                     74                     75
                      A                      A                      A
 Frequencies --    865.6141               867.7786               908.5926
 Red. masses --      5.4606                 3.4070                 2.3338
 Frc consts  --      2.4107                 1.5116                 1.1352
 IR Inten    --      0.0441                 3.4267                23.5045

                     76                     77                     78
                      A                      A                      A
 Frequencies --    917.8671               919.6402               925.2916
 Red. masses --      4.2284                 5.3658                 1.9753
 Frc consts  --      2.0989                 2.6738                 0.9964
 IR Inten    --     25.2067                 5.4842                24.0147

                     79                     80                     81
                      A                      A                      A
 Frequencies --    942.8403               965.9610               968.1260
 Red. masses --      1.5595                 2.1805                 2.0563
 Frc consts  --      0.8168                 1.1988                 1.1356
 IR Inten    --      8.1596                43.4365                14.4420

                     82                     83                     84
                      A                      A                      A
 Frequencies --    980.2145              1016.8560              1038.6473
 Red. masses --      3.2808                 3.8451                 4.4472
 Frc consts  --      1.8572                 2.3425                 2.8266
 IR Inten    --     92.3115                21.5740                 3.7905

                     85                     86                     87
                      A                      A                      A
 Frequencies --   1039.7006              1053.5332              1082.3042
 Red. masses --      4.1799                 4.5645                 4.0277
 Frc consts  --      2.6622                 2.9850                 2.7798
 IR Inten    --     18.7079                45.1693                 0.8762

                     88                     89                     90
                      A                      A                      A
 Frequencies --   1092.4528              1101.9363              1116.4190
 Red. masses --      2.0337                 1.4799                 1.8890
 Frc consts  --      1.4300                 1.0588                 1.3872
 IR Inten    --     26.5977                 1.8188                14.1499

                     91                     92                     93
                      A                      A                      A
 Frequencies --   1122.5175              1131.0204              1144.9288
 Red. masses --      1.6901                 1.9064                 2.4122
 Frc consts  --      1.2547                 1.4368                 1.8631
 IR Inten    --      6.9145                 1.0852                 0.4843

                     94                     95                     96
                      A                      A                      A
 Frequencies --   1146.9840              1148.5031              1172.4025
 Red. masses --      1.1971                 1.1726                 2.4565
 Frc consts  --      0.9279                 0.9113                 1.9894
 IR Inten    --      7.8163                 6.1588                 2.3437

                     97                     98                     99
                      A                      A                      A
 Frequencies --   1177.6427              1180.4075              1201.6501
 Red. masses --      2.5990                 3.0080                 3.9967
 Frc consts  --      2.1237                 2.4694                 3.4003
 IR Inten    --     14.9088                29.3578                 0.0577

                    100                    101                    102
                      A                      A                      A
 Frequencies --   1208.7443              1213.7715              1257.1730
 Red. masses --      5.6011                 6.4235                 5.6176
 Frc consts  --      4.8216                 5.5757                 5.2310
 IR Inten    --      1.4692                 3.9890                57.8379

                    103                    104                    105
                      A                      A                      A
 Frequencies --   1294.5973              1305.5173              1394.6438
 Red. masses --      7.0779                 7.0657                 9.0813
 Frc consts  --      6.9891                 7.0953                10.4070
 IR Inten    --    140.7310                28.6778                 4.4767

                    106                    107                    108
                      A                      A                      A
 Frequencies --   1401.1048              1439.9815              1446.3508
 Red. masses --      9.5895                 9.1096                 9.7721
 Frc consts  --     11.0914                11.1292                12.0444
 IR Inten    --      8.4796                 6.5406                 9.3315

                    109                    110                    111
                      A                      A                      A
 Frequencies --   1457.3818              1477.2716              1649.8074
 Red. masses --      9.0300                 9.2340                11.0298
 Frc consts  --     11.3001                11.8730                17.6882
 IR Inten    --     27.3283                17.2013                 5.9071

                    112                    113                    114
                      A                      A                      A
 Frequencies --   1668.0333              1675.5465              1707.4755
 Red. masses --     10.8310                10.8624                10.6789
 Frc consts  --     17.7554                17.9676                18.3436
 IR Inten    --      8.7728                 3.0093                 5.6279

                    115                    116                    117
                      A                      A                      A
 Frequencies --   1726.3791              1742.8337              4120.9170
 Red. masses --     12.4495                12.4642                 1.0866
 Frc consts  --     21.8613                22.3062                10.8723
 IR Inten    --    538.7222               252.9008                 4.5921

                    118                    119                    120
                      A                      A                      A
 Frequencies --   4130.7062              4183.8838              4188.6938
 Red. masses --      1.0866                 1.0597                 1.0594
 Frc consts  --     10.9239                10.9297                10.9518
 IR Inten    --     14.2320                18.6664                 9.4828

                    121                    122                    123
                      A                      A                      A
 Frequencies --   4189.6945              4191.8203              4195.2153
 Red. masses --      1.0598                 1.0613                 1.0586
 Frc consts  --     10.9608                10.9870                10.9767
 IR Inten    --     14.3568                23.7268                13.8354

                    124                    125                    126
                      A                      A                      A
 Frequencies --   4199.9481              4292.4722              4299.0924
 Red. masses --      1.0586                 1.1088                 1.1089
 Frc consts  --     11.0022                12.0366                12.0754
 IR Inten    --     12.3445                11.0673                 6.2428

                    127                    128                    129
                      A                      A                      A
 Frequencies --   4302.5794              4304.6728              4309.2267
 Red. masses --      1.1091                 1.1086                 1.1116
 Frc consts  --     12.0967                12.1028                12.1623
 IR Inten    --      2.2425                18.3696                 1.5627

                    130                    131                    132
                      A                      A                      A
 Frequencies --   4315.2103              4762.7396              4766.5731
 Red. masses --      1.1117                 1.0884                 1.0874
 Frc consts  --     12.1964                14.5461                14.5565
 IR Inten    --      1.3481                 0.4331                 0.0889

                    133                    134                    135
                      A                      A                      A
 Frequencies --   4768.6508              4770.2219              4777.9180
 Red. masses --      1.0881                 1.0887                 1.0909
 Frc consts  --     14.5785                14.5966                14.6731
 IR Inten    --      0.6682                 1.4526                 0.5071

                    136                    137                    138
                      A                      A                      A
 Frequencies --   4778.6945              4784.9559              4786.3263
 Red. masses --      1.0906                 1.0923                 1.0924
 Frc consts  --     14.6729                14.7343                14.7449
 IR Inten    --      0.9643                 0.4849                 0.6061

 - Thermochemistry -
 -------------------
 Temperature   298.150 Kelvin.  Pressure   1.00000 Atm.
 Atom     1 has atomic number  7 and mass  14.00307

 Molecular mass:   346.16813 amu.
 Principal axes and moments of inertia in atomic units:
                           1         2         3
     Eigenvalues --  6427.47618********************
           X            1.00000  -0.00020  -0.00196
           Y            0.00020   1.00000   0.00005
           Z            0.00196  -0.00005   1.00000
 This molecule is an asymmetric top.
 Rotational symmetry number  1.
 Warning -- assumption of classical behavior for rotation
           may cause significant error
 Rotational temperatures (Kelvin)      0.01348     0.00548     0.00412
 Rotational constants (GHZ):           0.28079     0.11419     0.08587
   29 imaginary frequencies ignored.
 Zero-point vibrational energy    1035868.8 (Joules/Mol)
                                  247.57859 (Kcal/Mol)
 Warning -- explicit consideration of  25 degrees of freedom as
           vibrations may cause significant error
 Vibrational temperatures:     81.92   145.73   167.20   186.30   198.70
          (Kelvin)            218.66   237.38   273.91   316.69   368.45
                              376.80   447.07   473.87   525.07   643.62
                              648.00   740.65   769.74   772.78   799.85
                              802.57   827.98   834.16   875.25   886.09
                              991.33  1004.05  1017.68  1018.41  1023.63
                             1048.13  1054.75  1061.79  1068.72  1089.16
                             1092.12  1130.95  1137.18  1146.05  1164.03
                             1206.33  1208.07  1244.29  1245.43  1248.54
                             1307.26  1320.61  1323.16  1331.29  1356.54
                             1389.80  1392.92  1410.31  1463.03  1494.38
                             1495.90  1515.80  1557.19  1571.80  1585.44
                             1606.28  1615.05  1627.29  1647.30  1650.25
                             1652.44  1686.83  1694.37  1698.34  1728.91
                             1739.11  1746.35  1808.79  1862.64  1878.35
                             2006.58  2015.88  2071.81  2080.98  2096.85
                             2125.46  2373.70  2399.93  2410.74  2456.68
                             2483.87  2507.55  5929.08  5943.16  6019.68
                             6026.60  6028.04  6031.09  6035.98  6042.79
                             6175.91  6185.44  6190.45  6193.46  6200.02
                             6208.63  6852.52  6858.04  6861.02  6863.29
                             6874.36  6875.48  6884.48  6886.46

 Zero-point correction=                           0.394542 (Hartree/Particle)
 Thermal correction to Energy=                    0.410261
 Thermal correction to Enthalpy=                  0.411205
 Thermal correction to Gibbs Free Energy=         0.351326
 Sum of electronic and zero-point Energies=          -1108.849397
 Sum of electronic and thermal Energies=             -1108.833678
 Sum of electronic and thermal Enthalpies=           -1108.832734
 Sum of electronic and thermal Free Energies=        -1108.892613

                     E (Thermal)             CV                S
                      KCal/Mol        Cal/Mol-Kelvin    Cal/Mol-Kelvin
 Total                  257.442             68.012            126.026
 Electronic               0.000              0.000              0.000
 Translational            0.889              2.981             43.419
 Rotational               0.889              2.981             36.011
 Vibrational            255.665             62.050             46.596
 Vibration     1          0.596              1.975              4.561
 Vibration     2          0.604              1.948              3.429
 Vibration     3          0.608              1.936              3.162
 Vibration     4          0.612              1.924              2.954
 Vibration     5          0.614              1.915              2.830
 Vibration     6          0.619              1.900              2.647
 Vibration     7          0.623              1.885              2.492
 Vibration     8          0.634              1.853              2.224
 Vibration     9          0.647              1.810              1.958
 Vibration    10          0.666              1.753              1.688
 Vibration    11          0.669              1.743              1.649
 Vibration    12          0.700              1.653              1.358
 Vibration    13          0.712              1.617              1.263
 Vibration    14          0.738              1.544              1.101
 Vibration    15          0.806              1.367              0.804
 Vibration    16          0.809              1.360              0.795
 Vibration    17          0.870              1.217              0.622
 Vibration    18          0.890              1.173              0.576
 Vibration    19          0.892              1.168              0.572
 Vibration    20          0.911              1.127              0.532
 Vibration    21          0.913              1.123              0.528
 Vibration    22          0.932              1.084              0.494
 Vibration    23          0.936              1.075              0.486
 Vibration    24          0.967              1.014              0.436
 Vibration    25          0.975              0.998              0.423

 Normal termination of Gaussian 16 at Sat Mar  4 13:31:06 2023.
