 Gaussian 16, Revision C.01,
 Gaussian 16:  ES64L-G16RevC.01  3-Jul-2019

 ----------------------------------------------------------------------
 #p pop=(regular,nbo,savenbos) freq=noraman def2svp empiricaldispersion
 =gd3bj output=wfx pbe1pbe
 ----------------------------------------------------------------------

 ----------------------------------------
 LUPRUK_Complex_1_Ligand_1_NN_Cu_oriented
 ----------------------------------------
 Symbolic Z-matrix:
 Charge = -1 Multiplicity = 1

                         Standard orientation:
 ---------------------------------------------------------------------
 Center     Atomic      Atomic             Coordinates (Angstroms)
 Number     Number       Type             X           Y           Z
 ---------------------------------------------------------------------
      1          6           0       -1.390805   -0.989217   -0.370179
      2          6           0       -2.996981   -1.112868    1.311703
      3          6           0       -3.939177   -1.093436    0.061618
      4          6           0        0.877118   -0.540669   -0.446019
      5          6           0        3.148255    0.576098   -0.211224
      6          6           0       -3.009605   -2.453302    2.035798
      7          6           0       -4.656892    0.208764   -0.111188
      8          6           0       -3.989951    1.406124   -0.278588
      9          6           0        4.648530    0.460878   -0.202119
     10          6           0        5.303559   -0.733834   -0.359704
     11          6           0        6.688509   -0.812026   -0.248399
     12          6           0        7.412047    0.290581    0.023626
     13          1           0       -3.294973   -0.392218    1.882033
     14          1           0       -4.592478   -1.836796    0.154784
     15          1           0       -3.113014    1.426705   -0.406634
     16          1           0        4.828409   -1.551007   -0.609692
     17          1           0        7.106227   -1.658018   -0.220840
     18          1           0        8.295235    0.208203    0.147204
     19          1           0       -2.790186   -3.078974    1.486896
     20          1           0       -3.952262   -2.625163    2.449489
     21          7           0       -1.626569   -0.769035    0.893340
     22          7           0       -0.246289   -0.899304   -1.075498
     23          7           0        1.103750   -0.259192    0.812184
     24         16           0       -2.804506   -1.481170   -1.318835
     25         16           0        2.297659   -0.392796   -1.496472
     26          6           0        2.502973    0.066907    1.098881
     27          6           0        2.623549    1.091724    2.225167
     28          1           0        2.181421    1.867265    1.948604
     29          1           0        2.194461    0.653687    3.015787
     30          1           0        3.634987    1.371575    2.374934
     31          6           0       -6.038992    0.255056    0.003888
     32          6           0       -6.709581    1.469852   -0.079621
     33          1           0       -6.438503   -0.512889    0.182373
     34          1           0       -7.694127    1.483370   -0.052688
     35          6           0       -6.023913    2.622126   -0.235822
     36          1           0       -6.475376    3.414850   -0.215858
     37          6           0       -4.654410    2.609128   -0.346480
     38          1           0       -4.136887    3.395080   -0.366460
     39          6           0        6.778088    1.485213    0.162406
     40          6           0        5.411817    1.584849    0.024555
     41          1           0        7.309810    2.147781    0.278320
     42          1           0        4.971191    2.408738    0.299696
     43          1           0       -2.352259   -2.460225    2.849202
     44          1           0        2.981601   -0.663477    1.370802
     45          1           0        2.925217    1.525999   -0.283013
 ---------------------------------------------------------------------

 SCF Done:  E(RPBE1PBE) =  -1732.15753292     A.U. after   16 cycles

 The electronic state is 1-A.
 Alpha  occ. eigenvalues --  -88.85966 -88.85788 -14.19906 -14.19702 -14.19566
 Alpha  occ. eigenvalues --  -10.15443 -10.15373 -10.14361 -10.13645 -10.13614
 Alpha  occ. eigenvalues --  -10.13034 -10.12956 -10.12934 -10.12636 -10.12476
 Alpha  occ. eigenvalues --  -10.12379 -10.12180 -10.12099 -10.11876 -10.11820
 Alpha  occ. eigenvalues --  -10.11748 -10.11376 -10.10720 -10.07860 -10.07745
 Alpha  occ. eigenvalues --   -7.86174  -7.86023  -5.80398  -5.80241  -5.79999
 Alpha  occ. eigenvalues --   -5.79862  -5.79439  -5.79277  -0.82881  -0.80821
 Alpha  occ. eigenvalues --   -0.79916  -0.78907  -0.74776  -0.71190  -0.70264
 Alpha  occ. eigenvalues --   -0.68981  -0.68468  -0.66933  -0.64846  -0.64504
 Alpha  occ. eigenvalues --   -0.64181  -0.58712  -0.57111  -0.56119  -0.55494
 Alpha  occ. eigenvalues --   -0.53465  -0.52931  -0.50081  -0.49113  -0.47308
 Alpha  occ. eigenvalues --   -0.46834  -0.45574  -0.41322  -0.41049  -0.39325
 Alpha  occ. eigenvalues --   -0.38227  -0.38030  -0.37183  -0.37056  -0.36108
 Alpha  occ. eigenvalues --   -0.35852  -0.35476  -0.34910  -0.33588  -0.31115
 Alpha  occ. eigenvalues --   -0.30777  -0.30275  -0.30029  -0.29508  -0.29441
 Alpha  occ. eigenvalues --   -0.28404  -0.28349  -0.27686  -0.27291  -0.26538
 Alpha  occ. eigenvalues --   -0.26352  -0.26025  -0.24952  -0.24073  -0.21283
 Alpha  occ. eigenvalues --   -0.21103  -0.18685  -0.17804  -0.17207  -0.16858
 Alpha  occ. eigenvalues --   -0.16051  -0.12293  -0.11771  -0.10193  -0.08688
 Alpha  occ. eigenvalues --   -0.07979  -0.05813
 Alpha virt. eigenvalues --    0.08250   0.09195   0.09219   0.09430   0.15378
 Alpha virt. eigenvalues --    0.17610   0.17946   0.18424   0.18664   0.19643
 Alpha virt. eigenvalues --    0.19890   0.21654   0.21736   0.22969   0.23216

 Mulliken charges:
               1
     1  C    0.041371
     2  C    0.116121
     3  C   -0.147254
     4  C    0.025246
     5  C   -0.110799
     6  C    0.232667
     7  C    0.069575
     8  C    0.150565
     9  C   -0.003654
    10  C    0.053609
    11  C    0.074980
    12  C    0.107650
    13  H   -0.052741
    14  H   -0.034387
    15  H   -0.140085
    16  H   -0.068107
    17  H   -0.095526
    18  H   -0.151417
    19  H   -0.097405
    20  H   -0.029671
    21  N   -0.290113
    22  N   -0.279650
    23  N   -0.292797
    24  S   -0.060696
    25  S   -0.059692
    26  C    0.197110
    27  C    0.166120
    28  H   -0.058873
    29  H    0.003491
    30  H   -0.016035
    31  C    0.122509
    32  C    0.058435
    33  H   -0.184223
    34  H   -0.071731
    35  C    0.104657
    36  H   -0.131293
    37  C    0.082145
    38  H   -0.095526
    39  C    0.164701
    40  C    0.067343
    41  H   -0.191861
    42  H   -0.073011
    43  H    0.009122
    44  H   -0.092182
    45  H   -0.018688
 Sum of Mulliken charges =  -1.00000

 Dipole moment (field-independent basis, Debye):
    X=              0.7954    Y=              2.5700    Z=              2.5680  Tot=              3.7192
 Quadrupole moment (field-independent basis, Debye-Ang):
   XX=           -195.2391   YY=           -162.2825   ZZ=           -178.8965
   XY=             -0.0677   XZ=             -0.4877   YZ=             -3.1116

  Exact polarizability:     400.198       4.728     214.557      -2.111       5.213     176.890
 Approx polarizability:     482.635      13.641     351.718      -4.437      22.292     307.642

 Summary of Natural Population Analysis:

                                       Natural Population
                Natural  -----------------------------------------------
    Atom  No    Charge         Core      Valence    Rydberg      Total
 -----------------------------------------------------------------------
      C    1    0.33692      1.99913     3.61735    0.04660     5.66308
      C    2    0.02498      1.99895     3.95376    0.02231     5.97502
      C    3   -0.35148      1.99889     4.32521    0.02738     6.35148
      C    4    0.35085      1.99915     3.60352    0.04648     5.64915
      C    5   -0.33038      1.99886     4.30497    0.02655     6.33038
      C    6   -0.54015      1.99889     4.52793    0.01332     6.54015
      C    7   -0.01650      1.99900     3.99740    0.02009     6.01650
      C    8   -0.12862      1.99891     4.11295    0.01676     6.12862
      C    9   -0.02536      1.99894     4.00597    0.02046     6.02536
      C   10   -0.18345      1.99898     4.16829    0.01618     6.18345
      C   11   -0.16980      1.99910     4.15616    0.01454     6.16980
      C   12   -0.17859      1.99908     4.16474    0.01477     6.17859
      H   13    0.16956      0.00000     0.82468    0.00576     0.83044
      H   14    0.20743      0.00000     0.78841    0.00416     0.79257
      H   15    0.16478      0.00000     0.83099    0.00423     0.83522
      H   16    0.20106      0.00000     0.79358    0.00537     0.79894
      H   17    0.16708      0.00000     0.82961    0.00331     0.83292
      H   18    0.14667      0.00000     0.84990    0.00343     0.85333
      H   19    0.14297      0.00000     0.85277    0.00426     0.85703
      H   20    0.18080      0.00000     0.81552    0.00368     0.81920
      N   21   -0.60756      1.99924     5.58979    0.01852     7.60756
      N   22   -0.71785      1.99910     5.69844    0.02030     7.71785
      N   23   -0.61834      1.99923     5.60037    0.01874     7.61834
      S   24    0.13719      9.99907     5.83266    0.03108    15.86281
      S   25    0.12778      9.99907     5.84152    0.03164    15.87222
      C   26    0.06651      1.99880     3.91344    0.02125     5.93349
      C   27   -0.56862      1.99913     4.55839    0.01110     6.56862
      H   28    0.17102      0.00000     0.82399    0.00499     0.82898
      H   29    0.20489      0.00000     0.79149    0.00361     0.79511
      H   30    0.18881      0.00000     0.80835    0.00284     0.81119
      C   31   -0.15956      1.99891     4.14466    0.01599     6.15956
      C   32   -0.19760      1.99913     4.18437    0.01411     6.19760
      H   33    0.14400      0.00000     0.85264    0.00336     0.85600
      H   34    0.18114      0.00000     0.81560    0.00326     0.81886
      C   35   -0.19394      1.99905     4.18028    0.01461     6.19394
      H   36    0.15503      0.00000     0.84160    0.00336     0.84497
      C   37   -0.16533      1.99913     4.15189    0.01431     6.16533
      H   38    0.16997      0.00000     0.82692    0.00310     0.83003
      C   39   -0.13780      1.99897     4.12330    0.01553     6.13780
      C   40   -0.19662      1.99898     4.18277    0.01487     6.19662
      H   41    0.12974      0.00000     0.86681    0.00345     0.87026
      H   42    0.18587      0.00000     0.81083    0.00330     0.81413
      H   43    0.21312      0.00000     0.78352    0.00336     0.78688
      H   44    0.12840      0.00000     0.86293    0.00867     0.87160
      H   45    0.19098      0.00000     0.80177    0.00726     0.80902
 =======================================================================
   * Total *   -1.00000     65.97571   127.41204    0.61225   194.00000

 ******   32 imaginary frequencies (negative Signs) ******

                      1                      2                      3
                      A                      A                      A
 Frequencies --  -2098.8515             -1960.6938             -1861.4015
 Red. masses --      1.0693                 1.0468                 1.0693
 Frc consts  --      2.7754                 2.3711                 2.1828
 IR Inten    --     24.6829                 5.7722                12.4794

                      4                      5                      6
                      A                      A                      A
 Frequencies --  -1819.5418             -1773.6441             -1740.3370
 Red. masses --      1.0636                 1.0525                 1.0610
 Frc consts  --      2.0746                 1.9508                 1.8934
 IR Inten    --     24.1472                 6.2694                 4.0949

                      7                      8                      9
                      A                      A                      A
 Frequencies --  -1666.4859             -1517.3457             -1437.4186
 Red. masses --      1.0563                 1.0614                 1.0544
 Frc consts  --      1.7284                 1.4398                 1.2835
 IR Inten    --     17.4390                22.9564                12.0234

                     10                     11                     12
                      A                      A                      A
 Frequencies --  -1358.4940             -1298.1605             -1259.5262
 Red. masses --      1.0605                 1.0197                 1.0610
 Frc consts  --      1.1531                 1.0124                 0.9917
 IR Inten    --     15.0561                 2.2376                 7.0349

                     13                     14                     15
                      A                      A                      A
 Frequencies --  -1197.4525             -1182.5893             -1176.8596
 Red. masses --      1.0650                 1.0408                 1.0366
 Frc consts  --      0.8997                 0.8576                 0.8459
 IR Inten    --      0.2148                20.9760                 3.6204

                     16                     17                     18
                      A                      A                      A
 Frequencies --  -1140.9286             -1062.1660             -1036.8187
 Red. masses --      1.0973                 1.0820                 1.1096
 Frc consts  --      0.8416                 0.7192                 0.7028
 IR Inten    --     45.0982                 5.6907                27.0306

                     19                     20                     21
                      A                      A                      A
 Frequencies --   -880.7187              -774.9135              -715.0886
 Red. masses --      1.0362                 1.0241                 1.0243
 Frc consts  --      0.4735                 0.3623                 0.3086
 IR Inten    --     14.3434                 4.7990                10.7578

                     22                     23                     24
                      A                      A                      A
 Frequencies --   -678.3516              -644.0291              -508.7516
 Red. masses --      1.1167                 1.1851                 1.1635
 Frc consts  --      0.3028                 0.2896                 0.1774
 IR Inten    --      7.5490                 2.7888                 4.1104

                     25                     26                     27
                      A                      A                      A
 Frequencies --   -466.1354              -389.7406              -353.0672
 Red. masses --      1.6089                 1.5007                 1.2043
 Frc consts  --      0.2060                 0.1343                 0.0885
 IR Inten    --     20.7631                 4.1241                 0.8740

                     28                     29                     30
                      A                      A                      A
 Frequencies --   -334.8760              -252.0368              -199.1945
 Red. masses --      1.7789                 1.9724                 2.3267
 Frc consts  --      0.1175                 0.0738                 0.0544
 IR Inten    --     23.1415                 4.3471                13.2020

                     31                     32                     33
                      A                      A                      A
 Frequencies --   -180.7923               -79.9962               114.4255
 Red. masses --      2.6208                 6.4448                 7.3957
 Frc consts  --      0.0505                 0.0243                 0.0571
 IR Inten    --      2.0463                 1.2607                 0.4843

                     34                     35                     36
                      A                      A                      A
 Frequencies --    149.4505               152.4008               171.0417
 Red. masses --      7.1735                 8.0756                 9.2699
 Frc consts  --      0.0944                 0.1105                 0.1598
 IR Inten    --      0.9982                 0.4723                 1.2910

                     37                     38                     39
                      A                      A                      A
 Frequencies --    180.6543               208.8179               225.2760
 Red. masses --      8.3710                 5.4768                 4.4992
 Frc consts  --      0.1610                 0.1407                 0.1345
 IR Inten    --      1.3246                10.4320                 1.0200

                     40                     41                     42
                      A                      A                      A
 Frequencies --    254.1179               284.8485               303.8830
 Red. masses --      3.9403                 5.3381                 3.9646
 Frc consts  --      0.1499                 0.2552                 0.2157
 IR Inten    --      4.2256                 6.2890                 0.4512

                     43                     44                     45
                      A                      A                      A
 Frequencies --    311.1184               339.4784               351.8307
 Red. masses --      6.4049                 4.0702                 3.0363
 Frc consts  --      0.3653                 0.2764                 0.2214
 IR Inten    --      1.6270                11.9291                22.2710

                     46                     47                     48
                      A                      A                      A
 Frequencies --    383.6181               429.2395               447.6948
 Red. masses --      3.5641                 4.3530                 1.9515
 Frc consts  --      0.3090                 0.4725                 0.2305
 IR Inten    --      3.2303                 2.0380                15.6782

                     49                     50                     51
                      A                      A                      A
 Frequencies --    487.8658               499.9874               527.3326
 Red. masses --      2.5593                 2.9958                 2.6200
 Frc consts  --      0.3589                 0.4413                 0.4293
 IR Inten    --      3.7449                 1.8618                14.4135

                     52                     53                     54
                      A                      A                      A
 Frequencies --    538.0180               540.0703               564.9279
 Red. masses --      9.9355                10.3852                 4.8058
 Frc consts  --      1.6945                 1.7847                 0.9037
 IR Inten    --      0.1185                 0.1837                 1.6387

                     55                     56                     57
                      A                      A                      A
 Frequencies --    575.8090               580.1889               592.9373
 Red. masses --      2.6645                 4.2163                 4.1976
 Frc consts  --      0.5205                 0.8362                 0.8695
 IR Inten    --     10.2256                 5.0980                 1.6235

                     58                     59                     60
                      A                      A                      A
 Frequencies --    606.5550               617.0634               629.5008
 Red. masses --      4.2074                 2.5541                 4.5902
 Frc consts  --      0.9120                 0.5730                 1.0717
 IR Inten    --      4.8884                 2.5710                 5.5224

                     61                     62                     63
                      A                      A                      A
 Frequencies --    640.3917               663.8130               668.9577
 Red. masses --      6.4129                 3.1669                 8.2287
 Frc consts  --      1.5495                 0.8222                 2.1696
 IR Inten    --      8.7070                 2.4016                17.2007

                     64                     65                     66
                      A                      A                      A
 Frequencies --    715.2583               717.6499               724.5539
 Red. masses --      4.8968                 6.4616                 3.5245
 Frc consts  --      1.4760                 1.9607                 1.0902
 IR Inten    --     12.4451                11.0290                 4.4443

                     67                     68                     69
                      A                      A                      A
 Frequencies --    749.0434               768.0558               785.5937
 Red. masses --      5.7723                 3.7825                 5.0090
 Frc consts  --      1.9082                 1.3147                 1.8214
 IR Inten    --     48.8981                 1.8299                 1.2804

                     70                     71                     72
                      A                      A                      A
 Frequencies --    798.7167               810.3367               818.9250
 Red. masses --      3.0104                 2.7621                 5.2012
 Frc consts  --      1.1315                 1.0686                 2.0551
 IR Inten    --      2.7103                19.0518                 5.4014

                     73                     74                     75
                      A                      A                      A
 Frequencies --    830.9282               840.2544               852.7657
 Red. masses --      2.4875                 2.3307                 3.8195
 Frc consts  --      1.0119                 0.9695                 1.6365
 IR Inten    --     40.2281                 3.6518                15.7478

                     76                     77                     78
                      A                      A                      A
 Frequencies --    871.0234               876.1765               891.2732
 Red. masses --      3.2253                 3.8662                 1.9720
 Frc consts  --      1.4417                 1.7487                 0.9230
 IR Inten    --     10.8437                19.9526                 4.4129

                     79                     80                     81
                      A                      A                      A
 Frequencies --    953.4470               961.6512               974.7156
 Red. masses --      4.5099                 6.6490                 2.8352
 Frc consts  --      2.4155                 3.6228                 1.5871
 IR Inten    --     15.3302                18.3668                28.2171

                     82                     83                     84
                      A                      A                      A
 Frequencies --    998.3752              1047.0146              1067.9630
 Red. masses --      3.1147                 3.0900                 6.3233
 Frc consts  --      1.8291                 1.9958                 4.2492
 IR Inten    --    193.8261                74.5396                 1.0738

                     85                     86                     87
                      A                      A                      A
 Frequencies --   1068.7909              1100.8553              1109.2242
 Red. masses --      6.3291                 3.8194                 2.3037
 Frc consts  --      4.2597                 2.7272                 1.6700
 IR Inten    --      0.1122                50.7023                12.7194

                     88                     89                     90
                      A                      A                      A
 Frequencies --   1140.3536              1161.0343              1181.4128
 Red. masses --      4.7257                 4.3489                 1.4275
 Frc consts  --      3.6207                 3.4540                 1.1739
 IR Inten    --     46.1391                16.4421                76.5031

                     91                     92                     93
                      A                      A                      A
 Frequencies --   1231.8261              1242.2494              1244.4496
 Red. masses --      2.9436                 6.0978                 5.8289
 Frc consts  --      2.6316                 5.5442                 5.3185
 IR Inten    --     47.4188                11.3438                 7.5068

                     94                     95                     96
                      A                      A                      A
 Frequencies --   1254.8720              1302.3925              1358.4221
 Red. masses --      2.5074                 1.0653                 1.0867
 Frc consts  --      2.3263                 1.0647                 1.1814
 IR Inten    --     86.3107                 7.1643                11.0402

                     97                     98                     99
                      A                      A                      A
 Frequencies --   1387.6777              1392.6180              1395.7833
 Red. masses --     10.6743                 8.2326                 7.7701
 Frc consts  --     12.1107                 9.4070                 8.9190
 IR Inten    --    487.5034                 5.3896                 0.4920

                    100                    101                    102
                      A                      A                      A
 Frequencies --   1458.4540              1503.7087              1518.0374
 Red. masses --      8.8095                 8.0149                 8.5040
 Frc consts  --     11.0405                10.6776                11.5462
 IR Inten    --     12.1236                29.5965                13.7761

                    103                    104                    105
                      A                      A                      A
 Frequencies --   1537.6689              1597.6835              1618.0075
 Red. masses --      8.6446                12.1972                12.2903
 Frc consts  --     12.0425                18.3440                18.9571
 IR Inten    --      0.6352              2414.4874               347.4774

                    106                    107                    108
                      A                      A                      A
 Frequencies --   1674.0110              1704.0812              1750.2191
 Red. masses --     10.0157                10.3751                 9.7519
 Frc consts  --     16.5367                17.7509                17.6004
 IR Inten    --      8.7284                28.5804                 3.4154

                    109                    110                    111
                      A                      A                      A
 Frequencies --   1774.6945              3477.5124              3600.9502
 Red. masses --      9.5982                 1.0685                 1.0551
 Frc consts  --     17.8110                 7.6129                 8.0611
 IR Inten    --      0.2715                35.4405                40.5356

                    112                    113                    114
                      A                      A                      A
 Frequencies --   3671.2513              4132.9912              4199.6286
 Red. masses --      1.0957                 1.0815                 1.0872
 Frc consts  --      8.7006                10.8843                11.2978
 IR Inten    --     32.5923                 4.3295                10.1572

                    115                    116                    117
                      A                      A                      A
 Frequencies --   4329.0864              4380.5442              4423.2486
 Red. masses --      1.0901                 1.0869                 1.0901
 Frc consts  --     12.0367                12.2888                12.5655
 IR Inten    --     14.1855                 6.5343                 0.1405

                    118                    119                    120
                      A                      A                      A
 Frequencies --   4464.4395              4531.1719              4843.8847
 Red. masses --      1.0895                 1.0879                 1.0896
 Frc consts  --     12.7943                13.1597                15.0625
 IR Inten    --      2.8371                17.3711                 5.3331

                    121                    122                    123
                      A                      A                      A
 Frequencies --   4884.2413              4956.5691              5212.9759
 Red. masses --      1.0897                 1.0895                 1.0871
 Frc consts  --     15.3158                15.7704                17.4062
 IR Inten    --      1.4611                 2.7752                20.9880

                    124                    125                    126
                      A                      A                      A
 Frequencies --   5269.6185              5515.2912              5660.0865
 Red. masses --      1.0892                 1.0892                 1.0888
 Frc consts  --     17.8211                19.5209                20.5523
 IR Inten    --      2.0347                 0.9012                 2.8469

                    127                    128                    129
                      A                      A                      A
 Frequencies --   5697.3145              6055.1255              6114.9640
 Red. masses --      1.0886                 1.0872                 1.0884
 Frc consts  --     20.8184                23.4852                23.9797
 IR Inten    --      0.2371                 0.5525                 0.5105

 - Thermochemistry -
 -------------------
 Temperature   298.150 Kelvin.  Pressure   1.00000 Atm.
 Atom     1 has atomic number  6 and mass  12.00000

 Molecular mass:   366.10987 amu.
 Principal axes and moments of inertia in atomic units:
                           1         2         3
     Eigenvalues --  3423.86299********************
           X            1.00000   0.00150  -0.00022
           Y           -0.00151   0.99890  -0.04681
           Z            0.00015   0.04681   0.99890
 This molecule is an asymmetric top.
 Rotational symmetry number  1.
 Warning -- assumption of classical behavior for rotation
           may cause significant error
 Rotational temperatures (Kelvin)      0.02530     0.00353     0.00342
 Rotational constants (GHZ):           0.52711     0.07365     0.07116
   32 imaginary frequencies ignored.
 Zero-point vibrational energy     964336.4 (Joules/Mol)
                                  230.48194 (Kcal/Mol)
 Warning -- explicit consideration of  27 degrees of freedom as
           vibrations may cause significant error
 Vibrational temperatures:    164.63   215.03   219.27   246.09   259.92
          (Kelvin)            300.44   324.12   365.62   409.83   437.22
                              447.63   488.43   506.21   551.94   617.58
                              644.13   701.93   719.37   758.71   774.09
                              777.04   812.81   828.46   834.76   853.10
                              872.70   887.82   905.71   921.38   955.08
                              962.48  1029.10  1032.54  1042.47  1077.71
                             1105.06  1130.29  1149.18  1165.89  1178.25
                             1195.52  1208.94  1226.94  1253.21  1260.62
                             1282.34  1371.80  1383.60  1402.40  1436.44
                             1506.42  1536.56  1537.75  1583.89  1595.93
                             1640.71  1670.47  1699.79  1772.32  1787.32
                             1790.49  1805.48  1873.85  1954.47  1996.56
                             2003.67  2008.22  2098.39  2163.50  2184.12
                             2212.36  2298.71  2327.95  2408.53  2451.79
                             2518.17  2553.39  5003.36  5180.96  5282.11
                             5946.45  6042.33  6228.59  6302.63  6364.07
                             6423.33  6519.35  6969.27  7027.33  7131.40
                             7500.31  7581.81  7935.27  8143.60  8197.16
                             8711.98  8798.07

 Zero-point correction=                           0.367296 (Hartree/Particle)
 Thermal correction to Energy=                    0.382002
 Thermal correction to Enthalpy=                  0.382947
 Thermal correction to Gibbs Free Energy=         0.326126
 Sum of electronic and zero-point Energies=          -1731.790237
 Sum of electronic and thermal Energies=             -1731.775530
 Sum of electronic and thermal Enthalpies=           -1731.774586
 Sum of electronic and thermal Free Energies=        -1731.831407

                     E (Thermal)             CV                S
                      KCal/Mol        Cal/Mol-Kelvin    Cal/Mol-Kelvin
 Total                  239.710             64.791            119.588
 Electronic               0.000              0.000              0.000
 Translational            0.889              2.981             43.586
 Rotational               0.889              2.981             36.007
 Vibrational            237.933             58.830             39.995
 Vibration     1          0.607              1.937              3.192
 Vibration     2          0.618              1.903              2.679
 Vibration     3          0.619              1.900              2.642
 Vibration     4          0.626              1.878              2.424
 Vibration     5          0.630              1.866              2.322
 Vibration     6          0.642              1.827              2.054
 Vibration     7          0.650              1.803              1.916
 Vibration     8          0.665              1.756              1.702
 Vibration     9          0.683              1.702              1.504
 Vibration    10          0.695              1.666              1.395
 Vibration    11          0.700              1.653              1.356
 Vibration    12          0.719              1.597              1.215
 Vibration    13          0.728              1.572              1.158
 Vibration    14          0.753              1.505              1.025
 Vibration    15          0.791              1.407              0.861
 Vibration    16          0.807              1.366              0.803
 Vibration    17          0.844              1.277              0.689
 Vibration    18          0.855              1.250              0.658
 Vibration    19          0.882              1.190              0.593
 Vibration    20          0.893              1.166              0.570
 Vibration    21          0.895              1.161              0.565
 Vibration    22          0.921              1.107              0.514
 Vibration    23          0.932              1.084              0.493
 Vibration    24          0.937              1.074              0.485
 Vibration    25          0.950              1.047              0.462
 Vibration    26          0.965              1.018              0.439
 Vibration    27          0.977              0.996              0.421

 Normal termination of Gaussian 16 at Mon Mar  6 12:06:38 2023.
