 Gaussian 16, Revision C.01,
 Gaussian 16:  ES64L-G16RevC.01  3-Jul-2019

 ----------------------------------------------------------------------
 #p pop=(regular,nbo,savenbos) freq=noraman def2svp empiricaldispersion
 =gd3bj output=wfx pbe1pbe
 ----------------------------------------------------------------------

 ----------------------------------------
 LUVGUG_Complex_0_Ligand_0_NN_Cu_oriented
 ----------------------------------------
 Symbolic Z-matrix:
 Charge =  0 Multiplicity = 1

                         Standard orientation:
 ---------------------------------------------------------------------
 Center     Atomic      Atomic             Coordinates (Angstroms)
 Number     Number       Type             X           Y           Z
 ---------------------------------------------------------------------
      1          7           0       -1.227999   -1.329065    0.298696
      2          7           0       -1.474527    1.000898    0.005480
      3          6           0        1.312375    2.251547    0.200687
      4          6           0        0.012251    3.004580    0.004275
      5          1           0        0.204242    3.834075   -0.500640
      6          1           0       -0.333083    3.269777    0.893094
      7          6           0       -1.072946    2.241706   -0.723520
      8          1           0       -1.865278    2.825936   -0.831454
      9          1           0       -0.749076    1.998368   -1.626403
     10          6           0       -2.953202    0.871128   -0.060146
     11          1           0       -3.238030    0.845533   -1.007888
     12          1           0       -3.373341    1.664704    0.362609
     13          6           0       -3.436535   -0.382740    0.639747
     14          1           0       -3.305659   -0.291032    1.617415
     15          1           0       -4.402825   -0.509889    0.466941
     16          6           0       -2.668030   -1.572695    0.134498
     17          1           0       -2.931470   -2.381627    0.641780
     18          1           0       -2.875804   -1.724727   -0.821684
     19          6           0       -0.829839   -0.220399   -0.558421
     20          1           0       -1.155175   -0.377359   -1.491754
     21          7           0        1.400352   -1.240783   -0.692865
     22          7           0        1.080557    0.837683    0.657593
     23          6           0       -0.489042   -2.555161   -0.018082
     24          1           0       -0.669230   -2.818978   -0.955751
     25          1           0       -0.793258   -3.289202    0.571892
     26          6           0        0.980028   -2.334391    0.169288
     27          1           0        1.170379   -2.111887    1.115101
     28          1           0        1.477835   -3.159154   -0.062652
     29          6           0        2.845443   -1.031639   -0.803129
     30          1           0        3.306944   -1.894837   -0.656205
     31          6           0        3.392518    0.002294    0.198411
     32          1           0        4.205613   -0.355440    0.633632
     33          1           0        3.640384    0.831232   -0.283334
     34          6           0        2.346866    0.321900    1.256518
     35          1           0        2.149846   -0.497396    1.776905
     36          1           0        2.710390    0.998610    1.880830
     37          6           0        0.684473   -0.013411   -0.561787
     38          1           0        0.897646    0.531982   -1.373153
     39          1           0        1.864231    2.724204    0.872799
     40          1           0        3.056132   -0.729688   -1.722345
     41          1           0        1.813742    2.239362   -0.652100
 ---------------------------------------------------------------------

 SCF Done:  E(RPBE1PBE) =  -727.233941849     A.U. after   13 cycles

 The electronic state is 1-A.
 Alpha  occ. eigenvalues --  -14.37249 -14.36293 -14.35859 -14.35604 -10.26023
 Alpha  occ. eigenvalues --  -10.25530 -10.22682 -10.22265 -10.21987 -10.21971
 Alpha  occ. eigenvalues --  -10.21861 -10.21719 -10.21705 -10.21621 -10.19345
 Alpha  occ. eigenvalues --  -10.19075 -10.18782  -0.98130  -0.94160  -0.90881
 Alpha  occ. eigenvalues --   -0.87683  -0.81820  -0.79580  -0.78509  -0.77123
 Alpha  occ. eigenvalues --   -0.70803  -0.68898  -0.68412  -0.67173  -0.63690
 Alpha  occ. eigenvalues --   -0.61213  -0.60154  -0.58983  -0.55399  -0.53273
 Alpha  occ. eigenvalues --   -0.51753  -0.51180  -0.49361  -0.48781  -0.48053
 Alpha  occ. eigenvalues --   -0.47494  -0.46216  -0.45550  -0.44676  -0.43611
 Alpha  occ. eigenvalues --   -0.42592  -0.42335  -0.41614  -0.39960  -0.39821
 Alpha  occ. eigenvalues --   -0.39010  -0.38063  -0.37829  -0.37356  -0.36036
 Alpha  occ. eigenvalues --   -0.35435  -0.34635  -0.34210  -0.32893  -0.32116
 Alpha  occ. eigenvalues --   -0.31463  -0.22890  -0.21663  -0.20765  -0.18962
 Alpha virt. eigenvalues --    0.07445   0.08672   0.09338   0.10212   0.10900
 Alpha virt. eigenvalues --    0.11462   0.12415   0.13055   0.13751   0.14040
 Alpha virt. eigenvalues --    0.14403   0.14795   0.15664   0.15950   0.16452

 Mulliken charges:
               1
     1  N   -0.498239
     2  N   -0.469317
     3  C    0.158785
     4  C    0.151613
     5  H   -0.031988
     6  H   -0.017493
     7  C    0.182730
     8  H   -0.023742
     9  H   -0.038671
    10  C    0.186035
    11  H   -0.052854
    12  H   -0.010869
    13  C    0.131474
    14  H   -0.006551
    15  H   -0.024692
    16  C    0.199743
    17  H   -0.022751
    18  H   -0.055681
    19  C    0.358485
    20  H   -0.059872
    21  N   -0.491270
    22  N   -0.428619
    23  C    0.241753
    24  H   -0.053231
    25  H   -0.025548
    26  C    0.287534
    27  H   -0.032155
    28  H   -0.026675
    29  C    0.267147
    30  H   -0.025862
    31  C   -0.015659
    32  H   -0.017277
    33  H   -0.015977
    34  C    0.210769
    35  H   -0.020556
    36  H   -0.022388
    37  C    0.243816
    38  H   -0.049342
    39  H   -0.024621
    40  H   -0.021868
    41  H   -0.036115
 Sum of Mulliken charges =  -0.00000

 Dipole moment (field-independent basis, Debye):
    X=              0.6091    Y=             -0.3429    Z=             -1.2443  Tot=              1.4272
 Quadrupole moment (field-independent basis, Debye-Ang):
   XX=            -94.3669   YY=            -96.5154   ZZ=           -106.1532
   XY=             -0.0285   XZ=              2.0044   YZ=             -2.5987

  Exact polarizability:     162.814       0.019     153.103       1.104      -1.550     113.511
 Approx polarizability:     197.774      -0.242     199.834       0.498      -2.102     177.111

 Summary of Natural Population Analysis:

                                       Natural Population
                Natural  -----------------------------------------------
    Atom  No    Charge         Core      Valence    Rydberg      Total
 -----------------------------------------------------------------------
      N    1   -0.56817      1.99932     5.55307    0.01577     7.56817
      N    2   -0.56788      1.99937     5.55279    0.01572     7.56788
      C    3   -0.16007      1.99906     4.14435    0.01666     6.16007
      C    4   -0.37737      1.99909     4.36536    0.01292     6.37737
      H    5    0.19199      0.00000     0.80414    0.00388     0.80801
      H    6    0.19584      0.00000     0.79915    0.00501     0.80416
      C    7   -0.16414      1.99907     4.14836    0.01671     6.16414
      H    8    0.18966      0.00000     0.80661    0.00373     0.81034
      H    9    0.16322      0.00000     0.83108    0.00571     0.83678
      C   10   -0.15554      1.99909     4.14045    0.01600     6.15554
      H   11    0.15363      0.00000     0.83975    0.00662     0.84637
      H   12    0.19099      0.00000     0.80587    0.00314     0.80901
      C   13   -0.38048      1.99913     4.36873    0.01262     6.38048
      H   14    0.19911      0.00000     0.79541    0.00547     0.80089
      H   15    0.19612      0.00000     0.80057    0.00332     0.80388
      C   16   -0.15790      1.99910     4.14179    0.01701     6.15790
      H   17    0.19079      0.00000     0.80599    0.00322     0.80921
      H   18    0.15605      0.00000     0.83717    0.00678     0.84395
      C   19    0.20309      1.99896     3.77344    0.02452     5.79691
      H   20    0.14928      0.00000     0.84112    0.00960     0.85072
      N   21   -0.57219      1.99928     5.56025    0.01266     7.57219
      N   22   -0.58088      1.99944     5.56467    0.01677     7.58088
      C   23   -0.16185      1.99910     4.14536    0.01739     6.16185
      H   24    0.16223      0.00000     0.83044    0.00733     0.83777
      H   25    0.19332      0.00000     0.80365    0.00302     0.80668
      C   26   -0.15388      1.99909     4.13806    0.01673     6.15388
      H   27    0.16816      0.00000     0.82579    0.00605     0.83184
      H   28    0.19176      0.00000     0.80525    0.00298     0.80824
      C   29   -0.15151      1.99911     4.13455    0.01784     6.15151
      H   30    0.18747      0.00000     0.80959    0.00294     0.81253
      C   31   -0.41647      1.99913     4.40662    0.01072     6.41647
      H   32    0.19622      0.00000     0.79990    0.00389     0.80378
      H   33    0.18681      0.00000     0.80984    0.00336     0.81319
      C   34   -0.15635      1.99909     4.13953    0.01773     6.15635
      H   35    0.18121      0.00000     0.81513    0.00366     0.81879
      H   36    0.19079      0.00000     0.80609    0.00312     0.80921
      C   37    0.18367      1.99895     3.79162    0.02576     5.81633
      H   38    0.17882      0.00000     0.81436    0.00682     0.82118
      H   39    0.18909      0.00000     0.80766    0.00325     0.81091
      H   40    0.18310      0.00000     0.81351    0.00339     0.81690
      H   41    0.15224      0.00000     0.84162    0.00614     0.84776
 =======================================================================
   * Total *    0.00000     33.98537    95.61866    0.39596   130.00000

 ******   20 imaginary frequencies (negative Signs) ******

                      1                      2                      3
                      A                      A                      A
 Frequencies --   -945.9288              -921.9041              -918.5490
 Red. masses --      1.0490                 1.0412                 1.0511
 Frc consts  --      0.5530                 0.5214                 0.5225
 IR Inten    --      3.2435                 2.4404                 1.5583

                      4                      5                      6
                      A                      A                      A
 Frequencies --   -905.7699              -890.9221              -888.5446
 Red. masses --      1.0505                 1.0469                 1.0564
 Frc consts  --      0.5078                 0.4896                 0.4914
 IR Inten    --      2.5266                 4.5139                 1.2555

                      7                      8                      9
                      A                      A                      A
 Frequencies --   -885.0989              -863.2308              -859.6966
 Red. masses --      1.0441                 1.0635                 1.0563
 Frc consts  --      0.4819                 0.4669                 0.4600
 IR Inten    --      0.7626                 2.0368                 2.0909

                     10                     11                     12
                      A                      A                      A
 Frequencies --   -851.4668              -841.7606              -383.5602
 Red. masses --      1.0517                 1.0553                 2.0779
 Frc consts  --      0.4492                 0.4406                 0.1801
 IR Inten    --      0.4109                 2.1364                 0.3535

                     13                     14                     15
                      A                      A                      A
 Frequencies --   -354.9906              -311.8632              -304.3653
 Red. masses --      2.1540                 1.8028                 2.1271
 Frc consts  --      0.1599                 0.1033                 0.1161
 IR Inten    --      0.6369                 0.0899                 2.2988

                     16                     17                     18
                      A                      A                      A
 Frequencies --   -288.7094              -281.2465              -235.9135
 Red. masses --      1.8548                 2.0498                 1.8687
 Frc consts  --      0.0911                 0.0955                 0.0613
 IR Inten    --      0.4831                 0.3215                 0.7241

                     19                     20                     21
                      A                      A                      A
 Frequencies --   -197.9973              -166.9873                83.1260
 Red. masses --      1.7501                 1.9397                 2.1707
 Frc consts  --      0.0404                 0.0319                 0.0088
 IR Inten    --      0.3488                 1.0767                 0.5172

                     22                     23                     24
                      A                      A                      A
 Frequencies --    146.2297               178.4220               235.5515
 Red. masses --      2.1396                 1.6792                 2.0137
 Frc consts  --      0.0270                 0.0315                 0.0658
 IR Inten    --      0.2666                 0.6086                 0.3862

                     25                     26                     27
                      A                      A                      A
 Frequencies --    243.9356               298.0369               398.1284
 Red. masses --      2.4899                 2.1812                 2.6501
 Frc consts  --      0.0873                 0.1141                 0.2475
 IR Inten    --      0.3635                 1.2598                 1.7653

                     28                     29                     30
                      A                      A                      A
 Frequencies --    463.2151               470.5163               519.0570
 Red. masses --      1.6232                 1.7937                 1.9878
 Frc consts  --      0.2052                 0.2340                 0.3155
 IR Inten    --      3.4418                 3.2375                 8.5700

                     31                     32                     33
                      A                      A                      A
 Frequencies --    523.1330               549.8509               642.4891
 Red. masses --      2.2839                 2.1239                 1.7535
 Frc consts  --      0.3683                 0.3783                 0.4265
 IR Inten    --      1.3454                 0.3513                13.9747

                     34                     35                     36
                      A                      A                      A
 Frequencies --    654.3824               676.8227               679.2513
 Red. masses --      1.5919                 1.4119                 1.3556
 Frc consts  --      0.4016                 0.3811                 0.3685
 IR Inten    --      0.3387                 0.9691                12.2424

                     37                     38                     39
                      A                      A                      A
 Frequencies --    690.9898               700.0470               711.9656
 Red. masses --      1.5371                 1.4438                 1.7009
 Frc consts  --      0.4324                 0.4169                 0.5080
 IR Inten    --      6.8110                10.2181                 2.9383

                     40                     41                     42
                      A                      A                      A
 Frequencies --    729.2272               744.7508               765.1380
 Red. masses --      1.4905                 1.2813                 1.5553
 Frc consts  --      0.4670                 0.4187                 0.5365
 IR Inten    --      2.3068                 5.1640                 6.6329

                     43                     44                     45
                      A                      A                      A
 Frequencies --    777.6132               782.4622               793.7720
 Red. masses --      1.6379                 1.6994                 1.5421
 Frc consts  --      0.5835                 0.6130                 0.5725
 IR Inten    --      3.9181                 2.0675                 3.5543

                     46                     47                     48
                      A                      A                      A
 Frequencies --    818.6096               823.2696               845.0766
 Red. masses --      1.8853                 2.1873                 2.7337
 Frc consts  --      0.7444                 0.8735                 1.1503
 IR Inten    --      2.9462                 5.2895                 2.6338

                     49                     50                     51
                      A                      A                      A
 Frequencies --    848.6787               872.5653               891.9086
 Red. masses --      1.9303                 1.7533                 2.2851
 Frc consts  --      0.8191                 0.7865                 1.0710
 IR Inten    --      0.5355                 5.2153                 0.4387

                     52                     53                     54
                      A                      A                      A
 Frequencies --    897.3511               909.9332               924.7346
 Red. masses --      2.2558                 2.2623                 1.7929
 Frc consts  --      1.0702                 1.1036                 0.9033
 IR Inten    --      1.4977                10.0074                 6.1471

                     55                     56                     57
                      A                      A                      A
 Frequencies --    934.9878               950.8970               952.8382
 Red. masses --      2.1201                 1.6364                 2.5181
 Frc consts  --      1.0920                 0.8718                 1.3470
 IR Inten    --      4.9937                 5.6277                52.0401

                     58                     59                     60
                      A                      A                      A
 Frequencies --    958.6465               973.8319               977.9108
 Red. masses --      1.9545                 1.6640                 2.5149
 Frc consts  --      1.0583                 0.9298                 1.4170
 IR Inten    --      1.2796                24.2004                 3.9958

                     61                     62                     63
                      A                      A                      A
 Frequencies --    986.2260              1008.3740              1010.9730
 Red. masses --      2.4181                 2.3593                 2.2380
 Frc consts  --      1.3857                 1.4134                 1.3477
 IR Inten    --      9.4525                 5.7609                10.6985

                     64                     65                     66
                      A                      A                      A
 Frequencies --   1018.7819              1051.6955              1063.6579
 Red. masses --      2.7220                 2.8665                 2.5398
 Frc consts  --      1.6646                 1.8680                 1.6930
 IR Inten    --      0.7284                14.9088                 6.9839

                     67                     68                     69
                      A                      A                      A
 Frequencies --   1065.9074              1077.9921              1097.3632
 Red. masses --      3.1658                 1.9399                 1.7881
 Frc consts  --      2.1192                 1.3282                 1.2686
 IR Inten    --     16.6921                31.5756                 9.5076

                     70                     71                     72
                      A                      A                      A
 Frequencies --   1098.9489              1101.4343              1109.5776
 Red. masses --      1.8512                 1.5640                 1.6249
 Frc consts  --      1.3172                 1.1179                 1.1787
 IR Inten    --      2.0847                13.7010                 2.0752

                     73                     74                     75
                      A                      A                      A
 Frequencies --   1119.1989              1125.2296              1135.5284
 Red. masses --      1.5743                 1.3415                 1.6853
 Frc consts  --      1.1619                 1.0008                 1.2803
 IR Inten    --      4.4304                14.5317                 1.0773

                     76                     77                     78
                      A                      A                      A
 Frequencies --   1137.4929              1144.3873              1147.1039
 Red. masses --      1.2743                 1.3260                 1.1857
 Frc consts  --      0.9715                 1.0232                 0.9193
 IR Inten    --     10.7036                 1.6568                 3.7000

                     79                     80                     81
                      A                      A                      A
 Frequencies --   1150.2322              1152.1917              1157.7808
 Red. masses --      1.3284                 1.5276                 1.3413
 Frc consts  --      1.0355                 1.1948                 1.0593
 IR Inten    --      7.7759                 9.1444                 6.4899

                     82                     83                     84
                      A                      A                      A
 Frequencies --   1170.0969              1172.8427              1183.6226
 Red. masses --      2.1327                 1.9199                 2.9444
 Frc consts  --      1.7204                 1.5560                 2.4303
 IR Inten    --     13.8877                38.0118                13.3987

                     85                     86                     87
                      A                      A                      A
 Frequencies --   1194.5194              1212.1368              1226.1072
 Red. masses --      2.2472                 3.3408                 6.8869
 Frc consts  --      1.8892                 2.8921                 6.1000
 IR Inten    --     28.2166                20.0321                17.9254

                     88                     89                     90
                      A                      A                      A
 Frequencies --   1234.6441              1243.0210              1273.7513
 Red. masses --      6.1514                 4.7427                 6.0453
 Frc consts  --      5.5247                 4.3175                 5.7788
 IR Inten    --     12.9993                10.2874               100.6368

                     91                     92                     93
                      A                      A                      A
 Frequencies --   1306.1134              1341.3365              1382.2721
 Red. masses --      4.4073                 7.6278                 4.8712
 Frc consts  --      4.4298                 8.0858                 5.4837
 IR Inten    --     53.1672                14.8573                35.1628

                     94                     95                     96
                      A                      A                      A
 Frequencies --   4075.0700              4096.5017              4159.3480
 Red. masses --      1.0852                 1.0874                 1.0589
 Frc consts  --     10.6175                10.7513                10.7935
 IR Inten    --     43.8715                33.0348                33.3694

                     97                     98                     99
                      A                      A                      A
 Frequencies --   4166.3570              4171.1490              4175.2851
 Red. masses --      1.0593                 1.0597                 1.0600
 Frc consts  --     10.8340                10.8627                10.8872
 IR Inten    --     27.4309                53.2381                29.2496

                    100                    101                    102
                      A                      A                      A
 Frequencies --   4178.0695              4178.4491              4181.7368
 Red. masses --      1.0593                 1.0593                 1.0602
 Frc consts  --     10.8951                10.8970                10.9231
 IR Inten    --     17.9229                38.7715                17.3877

                    103                    104                    105
                      A                      A                      A
 Frequencies --   4188.8704              4190.3022              4191.2761
 Red. masses --      1.0596                 1.0609                 1.0613
 Frc consts  --     10.9545                10.9756                10.9843
 IR Inten    --     25.9472                24.4592                33.6040

                    106                    107                    108
                      A                      A                      A
 Frequencies --   4192.6682              4267.5738              4281.0073
 Red. masses --      1.0615                 1.1097                 1.1089
 Frc consts  --     10.9938                11.9073                11.9743
 IR Inten    --     26.6092                18.1884                17.0085

                    109                    110                    111
                      A                      A                      A
 Frequencies --   4283.0767              4288.9884              4291.0592
 Red. masses --      1.1089                 1.1088                 1.1100
 Frc consts  --     11.9856                12.0170                12.0421
 IR Inten    --      4.9848                22.1368                 4.6618

                    112                    113                    114
                      A                      A                      A
 Frequencies --   4291.8041              4293.9243              4300.4483
 Red. masses --      1.1092                 1.1093                 1.1093
 Frc consts  --     12.0380                12.0506                12.0869
 IR Inten    --     10.5579                 1.9090                 3.8987

                    115                    116                    117
                      A                      A                      A
 Frequencies --   4302.6853              4304.5908              4306.3541
 Red. masses --      1.1087                 1.1079                 1.1087
 Frc consts  --     12.0932                12.0952                12.1138
 IR Inten    --     12.3219                20.4768                21.2319

 - Thermochemistry -
 -------------------
 Temperature   298.150 Kelvin.  Pressure   1.00000 Atm.
 Atom     1 has atomic number  7 and mass  14.00307

 Molecular mass:   236.20010 amu.
 Principal axes and moments of inertia in atomic units:
                           1         2         3
     Eigenvalues --  2465.434553683.312365513.13256
           X            0.99998   0.00532   0.00340
           Y           -0.00530   0.99997  -0.00626
           Z           -0.00344   0.00624   0.99997
 This molecule is an asymmetric top.
 Rotational symmetry number  1.
 Warning -- assumption of classical behavior for rotation
           may cause significant error
 Rotational temperatures (Kelvin)      0.03513     0.02352     0.01571
 Rotational constants (GHZ):           0.73202     0.48998     0.32735
   20 imaginary frequencies ignored.
 Zero-point vibrational energy     994673.9 (Joules/Mol)
                                  237.73277 (Kcal/Mol)
 Warning -- explicit consideration of  12 degrees of freedom as
           vibrations may cause significant error
 Vibrational temperatures:    119.60   210.39   256.71   338.91   350.97
          (Kelvin)            428.81   572.82   666.46   676.97   746.81
                              752.67   791.11   924.40   941.51   973.80
                              977.29   994.18  1007.21  1024.36  1049.20
                             1071.53  1100.86  1118.81  1125.79  1142.06
                             1177.80  1184.50  1215.88  1221.06  1255.43
                             1283.26  1291.09  1309.19  1330.49  1345.24
                             1368.13  1370.92  1379.28  1401.13  1407.00
                             1418.96  1450.83  1454.56  1465.80  1513.16
                             1530.37  1533.60  1550.99  1578.86  1581.14
                             1584.72  1596.43  1610.28  1618.95  1633.77
                             1636.60  1646.52  1650.43  1654.93  1657.75
                             1665.79  1683.51  1687.46  1702.97  1718.65
                             1743.99  1764.09  1776.38  1788.43  1832.64
                             1879.21  1929.88  1988.78  5863.12  5893.95
                             5984.37  5994.46  6001.35  6007.30  6011.31
                             6011.86  6016.59  6026.85  6028.91  6030.31
                             6032.31  6140.09  6159.41  6162.39  6170.90
                             6173.88  6174.95  6178.00  6187.39  6190.60
                             6193.35  6195.88

 Zero-point correction=                           0.378851 (Hartree/Particle)
 Thermal correction to Energy=                    0.389456
 Thermal correction to Enthalpy=                  0.390400
 Thermal correction to Gibbs Free Energy=         0.342718
 Sum of electronic and zero-point Energies=           -726.855091
 Sum of electronic and thermal Energies=              -726.844486
 Sum of electronic and thermal Enthalpies=            -726.843541
 Sum of electronic and thermal Free Energies=         -726.891224

                     E (Thermal)             CV                S
                      KCal/Mol        Cal/Mol-Kelvin    Cal/Mol-Kelvin
 Total                  244.387             50.631            100.356
 Electronic               0.000              0.000              0.000
 Translational            0.889              2.981             42.280
 Rotational               0.889              2.981             32.282
 Vibrational            242.610             44.669             25.794
 Vibration     1          0.600              1.961              3.816
 Vibration     2          0.617              1.907              2.721
 Vibration     3          0.629              1.869              2.345
 Vibration     4          0.655              1.786              1.836
 Vibration     5          0.659              1.773              1.774
 Vibration     6          0.691              1.677              1.428
 Vibration     7          0.764              1.474              0.970
 Vibration     8          0.821              1.332              0.757
 Vibration     9          0.828              1.315              0.736
 Vibration    10          0.874              1.208              0.612
 Vibration    11          0.878              1.199              0.603
 Vibration    12          0.905              1.140              0.544

 1\1\GINC-JST042\Freq\RPBE1PBE\def2SVP\C13H24N4\LAPLAZA\04-Mar-2023\0\\
 #p pop=(regular,nbo,savenbos) freq=noraman def2svp empiricaldispersion
 =gd3bj output=wfx pbe1pbe\\LUVGUG_Complex_0_Ligand_0_NN_Cu_oriented\\0
 ,1\N,0.61840505,1.44008496,-2.29997494\N,0.59386821,1.97393081,0.\C,2.
 53930108,0.07392898,1.40511137\C,1.68230785,1.12628693,2.07895504\H,2.
 14812859,1.43245026,2.89696152\H,0.83224282,0.70449677,2.36014446\C,1.
 3591857,2.33688136,1.23080017\H,0.82735763,2.97755361,1.76695592\H,2.2
 0211592,2.78477242,0.96971297\C,-0.47099334,2.98832688,-0.21141157\H,-

 Normal termination of Gaussian 16 at Sat Mar  4 13:06:21 2023.
