 Gaussian 16, Revision C.01,
 Gaussian 16:  ES64L-G16RevC.01  3-Jul-2019

 ----------------------------------------------------------------------
 #p pop=(regular,nbo,savenbos) freq=noraman def2svp empiricaldispersion
 =gd3bj output=wfx pbe1pbe
 ----------------------------------------------------------------------

 ----------------------------------------
 LUVGOA_Complex_2_Ligand_0_NN_Cu_oriented
 ----------------------------------------
 Symbolic Z-matrix:
 Charge =  0 Multiplicity = 1

                         Standard orientation:
 ---------------------------------------------------------------------
 Center     Atomic      Atomic             Coordinates (Angstroms)
 Number     Number       Type             X           Y           Z
 ---------------------------------------------------------------------
      1          6           0       -0.340797    2.377918   -0.204560
      2          1           0       -0.596830    2.746865    0.677558
      3          1           0       -0.578117    3.041017   -0.899654
      4          6           0        1.133564    2.114293   -0.237372
      5          1           0        1.401574    1.878401   -1.160261
      6          1           0        1.617140    2.937066    0.020350
      7          6           0        2.961574    0.722228    0.507275
      8          1           0        3.257486    0.155674    1.263347
      9          1           0        3.488954    1.560605    0.528200
     10          6           0        0.153797   -2.178599   -0.699629
     11          1           0        0.445272   -2.733672    0.066342
     12          6           0       -1.331144   -1.884629   -0.587532
     13          1           0       -1.642739   -1.421305   -1.405445
     14          1           0       -1.833363   -2.732711   -0.504558
     15          6           0       -3.023313   -0.698172    0.640463
     16          1           0       -3.228505   -0.285686    1.517467
     17          1           0       -3.556254   -1.529361    0.563358
     18          6           0       -3.423672    0.243717   -0.449328
     19          1           0       -4.363660    0.523847   -0.313216
     20          1           0       -3.364998   -0.218997   -1.322200
     21          6           0       -2.529790    1.470918   -0.467074
     22          1           0       -2.735339    2.033407    0.319625
     23          6           0       -0.788120    0.160657    0.652548
     24          1           0       -0.984774    0.622986    1.518028
     25          6           0        0.709700   -0.180769    0.623294
     26          6           0        1.079847   -1.029158    1.847322
     27          1           0        0.549380   -1.851622    1.846039
     28          1           0        2.032512   -1.252797    1.813183
     29          1           0        0.892497   -0.521400    2.664815
     30          7           0       -1.070325    1.109177   -0.449330
     31          7           0        1.518249    1.038881    0.656960
     32          7           0        0.901819   -0.889363   -0.707962
     33          7           0       -1.589160   -1.038338    0.590570
     34          6           0        3.218098   -0.007979   -0.808124
     35          1           0        3.034750    0.601613   -1.566784
     36          1           0        4.168789   -0.280908   -0.855361
     37          6           0        2.343045   -1.215603   -0.909647
     38          1           0        2.459962   -1.625987   -1.802733
     39          1           0        2.624097   -1.879045   -0.230811
     40          1           0       -2.723995    2.000272   -1.280348
     41          1           0        0.335349   -2.679682   -1.534418
 ---------------------------------------------------------------------

 SCF Done:  E(RPBE1PBE) =  -727.248477333     A.U. after   12 cycles

 The electronic state is 1-A.
 Alpha  occ. eigenvalues --  -14.36946 -14.36486 -14.36152 -14.36124 -10.27424
 Alpha  occ. eigenvalues --  -10.25508 -10.22317 -10.22239 -10.22091 -10.21849
 Alpha  occ. eigenvalues --  -10.21830 -10.21755 -10.21629 -10.21366 -10.19533
 Alpha  occ. eigenvalues --  -10.19305 -10.17425  -0.98346  -0.94105  -0.91177
 Alpha  occ. eigenvalues --   -0.87637  -0.82088  -0.79544  -0.78812  -0.75452
 Alpha  occ. eigenvalues --   -0.73016  -0.68530  -0.67443  -0.66979  -0.65387
 Alpha  occ. eigenvalues --   -0.61985  -0.61753  -0.57295  -0.54199  -0.52543
 Alpha  occ. eigenvalues --   -0.51055  -0.50824  -0.50422  -0.49484  -0.47365
 Alpha  occ. eigenvalues --   -0.46529  -0.45735  -0.45294  -0.43651  -0.43499
 Alpha  occ. eigenvalues --   -0.42634  -0.42251  -0.41837  -0.41205  -0.39889
 Alpha  occ. eigenvalues --   -0.39098  -0.38738  -0.38030  -0.36924  -0.36658
 Alpha  occ. eigenvalues --   -0.36297  -0.35748  -0.34611  -0.33285  -0.32797
 Alpha  occ. eigenvalues --   -0.30135  -0.22919  -0.22295  -0.20713  -0.19892
 Alpha virt. eigenvalues --    0.08065   0.08778   0.09839   0.10491   0.11054
 Alpha virt. eigenvalues --    0.12103   0.12682   0.13783   0.14283   0.14505
 Alpha virt. eigenvalues --    0.14801   0.15132   0.15524   0.16528   0.17173

 Mulliken charges:
               1
     1  C    0.227336
     2  H   -0.050142
     3  H   -0.027892
     4  C    0.301272
     5  H   -0.038566
     6  H   -0.034401
     7  C    0.208978
     8  H   -0.026598
     9  H   -0.023814
    10  C    0.233645
    11  H   -0.043198
    12  C    0.277274
    13  H   -0.028129
    14  H   -0.030178
    15  C    0.229640
    16  H   -0.031501
    17  H   -0.023824
    18  C    0.037121
    19  H   -0.018547
    20  H   -0.007274
    21  C    0.227273
    22  H   -0.051110
    23  C    0.314202
    24  H   -0.055576
    25  C   -0.130162
    26  C    0.306476
    27  H   -0.023691
    28  H   -0.026933
    29  H   -0.023366
    30  N   -0.467515
    31  N   -0.446805
    32  N   -0.441294
    33  N   -0.459310
    34  C    0.067678
    35  H   -0.008770
    36  H   -0.020256
    37  C    0.229077
    38  H   -0.022865
    39  H   -0.052794
    40  H   -0.016562
    41  H   -0.028897
 Sum of Mulliken charges =  -0.00000

 Dipole moment (field-independent basis, Debye):
    X=             -0.1414    Y=             -0.0194    Z=             -0.2767  Tot=              0.3114
 Quadrupole moment (field-independent basis, Debye-Ang):
   XX=            -93.4241   YY=            -98.2795   ZZ=           -106.4161
   XY=             -1.0583   XZ=             -0.2869   YZ=              0.8553

  Exact polarizability:     163.304       0.777     141.378      -0.779       1.043     117.427
 Approx polarizability:     200.035       1.639     193.594      -0.625       1.527     179.262

 Summary of Natural Population Analysis:

                                       Natural Population
                Natural  -----------------------------------------------
    Atom  No    Charge         Core      Valence    Rydberg      Total
 -----------------------------------------------------------------------
      C    1   -0.16328      1.99910     4.14760    0.01658     6.16328
      H    2    0.16027      0.00000     0.83247    0.00726     0.83973
      H    3    0.19485      0.00000     0.80201    0.00314     0.80515
      C    4   -0.15721      1.99909     4.14039    0.01772     6.15721
      H    5    0.17141      0.00000     0.82243    0.00616     0.82859
      H    6    0.18906      0.00000     0.80777    0.00316     0.81094
      C    7   -0.15683      1.99911     4.13931    0.01842     6.15683
      H    8    0.18388      0.00000     0.81263    0.00349     0.81612
      H    9    0.19136      0.00000     0.80559    0.00305     0.80864
      C   10   -0.16487      1.99910     4.14891    0.01687     6.16487
      H   11    0.16463      0.00000     0.82966    0.00570     0.83537
      C   12   -0.16315      1.99909     4.14645    0.01761     6.16315
      H   13    0.17487      0.00000     0.81906    0.00607     0.82513
      H   14    0.18821      0.00000     0.80874    0.00305     0.81179
      C   15   -0.15725      1.99910     4.13964    0.01851     6.15725
      H   16    0.18467      0.00000     0.81153    0.00380     0.81533
      H   17    0.19066      0.00000     0.80618    0.00316     0.80934
      C   18   -0.40139      1.99913     4.39112    0.01115     6.40139
      H   19    0.20205      0.00000     0.79440    0.00355     0.79795
      H   20    0.19117      0.00000     0.80501    0.00381     0.80883
      C   21   -0.15795      1.99908     4.14214    0.01673     6.15795
      H   22    0.15562      0.00000     0.83784    0.00654     0.84438
      C   23    0.18172      1.99884     3.79062    0.02882     5.81828
      H   24    0.18057      0.00000     0.81137    0.00807     0.81943
      C   25    0.35893      1.99900     3.61353    0.02853     5.64107
      C   26   -0.58581      1.99913     4.57495    0.01173     6.58581
      H   27    0.20694      0.00000     0.78958    0.00348     0.79306
      H   28    0.19256      0.00000     0.80521    0.00222     0.80744
      H   29    0.21123      0.00000     0.78535    0.00342     0.78877
      N   30   -0.58167      1.99938     5.56708    0.01520     7.58167
      N   31   -0.58560      1.99925     5.57144    0.01491     7.58560
      N   32   -0.58943      1.99937     5.57376    0.01630     7.58943
      N   33   -0.57323      1.99935     5.55946    0.01443     7.57323
      C   34   -0.39939      1.99913     4.38841    0.01185     6.39939
      H   35    0.19228      0.00000     0.80376    0.00396     0.80772
      H   36    0.19972      0.00000     0.79672    0.00356     0.80028
      C   37   -0.16226      1.99908     4.14594    0.01724     6.16226
      H   38    0.19121      0.00000     0.80550    0.00329     0.80879
      H   39    0.15719      0.00000     0.83699    0.00581     0.84281
      H   40    0.19050      0.00000     0.80637    0.00313     0.80950
      H   41    0.19373      0.00000     0.80307    0.00320     0.80627
 =======================================================================
   * Total *   -0.00000     33.98533    95.61997    0.39470   130.00000

 ******   20 imaginary frequencies (negative Signs) ******

                      1                      2                      3
                      A                      A                      A
 Frequencies --  -1227.5411              -923.3136              -917.6756
 Red. masses --      1.0096                 1.0472                 1.0559
 Frc consts  --      0.8964                 0.5260                 0.5239
 IR Inten    --      0.3330                 2.5923                 2.9654

                      4                      5                      6
                      A                      A                      A
 Frequencies --   -901.2150              -891.3009              -878.2300
 Red. masses --      1.0445                 1.0515                 1.0557
 Frc consts  --      0.4998                 0.4922                 0.4797
 IR Inten    --      3.8770                 3.6698                 1.2033

                      7                      8                      9
                      A                      A                      A
 Frequencies --   -864.9643              -863.3385              -857.8076
 Red. masses --      1.0624                 1.0567                 1.0551
 Frc consts  --      0.4683                 0.4641                 0.4574
 IR Inten    --      0.8045                 3.2163                 0.8073

                     10                     11                     12
                      A                      A                      A
 Frequencies --   -850.9940              -840.1209              -798.7350
 Red. masses --      1.0739                 1.0554                 1.0597
 Frc consts  --      0.4582                 0.4389                 0.3983
 IR Inten    --      2.9964                 2.5970                 2.6159

                     13                     14                     15
                      A                      A                      A
 Frequencies --   -777.1673              -355.9793              -331.0241
 Red. masses --      1.0466                 1.9913                 1.9464
 Frc consts  --      0.3724                 0.1487                 0.1257
 IR Inten    --      4.6325                 0.8475                 1.2328

                     16                     17                     18
                      A                      A                      A
 Frequencies --   -306.6822              -276.8004              -244.0026
 Red. masses --      2.1234                 1.7256                 1.7302
 Frc consts  --      0.1177                 0.0779                 0.0607
 IR Inten    --      1.1053                 0.0309                 0.0240

                     19                     20                     21
                      A                      A                      A
 Frequencies --   -208.5886              -187.4441                61.7726
 Red. masses --      2.0620                 2.4633                 1.9560
 Frc consts  --      0.0529                 0.0510                 0.0044
 IR Inten    --      1.3458                 1.3392                 1.3668

                     22                     23                     24
                      A                      A                      A
 Frequencies --     97.1568               131.5329               160.0610
 Red. masses --      1.9001                 1.5813                 1.7555
 Frc consts  --      0.0106                 0.0161                 0.0265
 IR Inten    --      0.3079                 1.0605                 0.9212

                     25                     26                     27
                      A                      A                      A
 Frequencies --    246.5874               288.0251               398.0440
 Red. masses --      3.5986                 2.3017                 2.1340
 Frc consts  --      0.1289                 0.1125                 0.1992
 IR Inten    --      0.0661                 0.1201                 0.8734

                     28                     29                     30
                      A                      A                      A
 Frequencies --    445.6871               455.8100               471.9449
 Red. masses --      1.7840                 2.7840                 2.3882
 Frc consts  --      0.2088                 0.3408                 0.3134
 IR Inten    --      0.7067                 1.9773                 5.3636

                     31                     32                     33
                      A                      A                      A
 Frequencies --    501.5911               537.3578               545.5256
 Red. masses --      2.7206                 2.7812                 2.2050
 Frc consts  --      0.4033                 0.4732                 0.3866
 IR Inten    --      1.3855                 0.4119                 2.0174

                     34                     35                     36
                      A                      A                      A
 Frequencies --    589.9502               621.0150               647.7957
 Red. masses --      2.1335                 1.9585                 1.4733
 Frc consts  --      0.4375                 0.4450                 0.3643
 IR Inten    --      2.4930                 5.7202                 0.9478

                     37                     38                     39
                      A                      A                      A
 Frequencies --    670.7192               681.4406               688.7161
 Red. masses --      1.4447                 1.6582                 1.4630
 Frc consts  --      0.3829                 0.4537                 0.4089
 IR Inten    --     15.8258                11.1372                 0.6120

                     40                     41                     42
                      A                      A                      A
 Frequencies --    690.6758               721.3079               731.8452
 Red. masses --      1.5243                 1.6242                 1.2390
 Frc consts  --      0.4284                 0.4979                 0.3910
 IR Inten    --      1.3736                 0.8594                22.3610

                     43                     44                     45
                      A                      A                      A
 Frequencies --    739.5905               747.9328               773.1268
 Red. masses --      1.5911                 1.6187                 1.5989
 Frc consts  --      0.5128                 0.5335                 0.5631
 IR Inten    --      3.3541                 3.8075                 5.4475

                     46                     47                     48
                      A                      A                      A
 Frequencies --    810.8762               816.7685               819.4975
 Red. masses --      2.2956                 1.7302                 1.9158
 Frc consts  --      0.8893                 0.6800                 0.7581
 IR Inten    --      2.0331                 1.4853                 6.1154

                     49                     50                     51
                      A                      A                      A
 Frequencies --    837.9432               869.0081               886.3639
 Red. masses --      2.4722                 1.8890                 2.3268
 Frc consts  --      1.0227                 0.8405                 1.0770
 IR Inten    --      2.1752                 2.9429                 2.6431

                     52                     53                     54
                      A                      A                      A
 Frequencies --    906.5622               913.7762               928.2063
 Red. masses --      2.1649                 2.3742                 2.5791
 Frc consts  --      1.0483                 1.1680                 1.3092
 IR Inten    --      4.5572                 0.0382                 4.6264

                     55                     56                     57
                      A                      A                      A
 Frequencies --    943.5039               954.7617               963.9348
 Red. masses --      1.8810                 2.8389                 2.3207
 Frc consts  --      0.9866                 1.5247                 1.2705
 IR Inten    --      5.3707                11.4545                 0.6790

                     58                     59                     60
                      A                      A                      A
 Frequencies --    969.7778               973.0786               992.1107
 Red. masses --      1.6977                 3.0130                 1.6441
 Frc consts  --      0.9407                 1.6809                 0.9535
 IR Inten    --      1.9438                 5.6923                 4.4913

                     61                     62                     63
                      A                      A                      A
 Frequencies --    998.9037              1004.2001              1008.0321
 Red. masses --      2.5218                 2.9886                 1.6961
 Frc consts  --      1.4826                 1.7757                 1.0154
 IR Inten    --     38.3541                29.6752                10.6634

                     64                     65                     66
                      A                      A                      A
 Frequencies --   1045.2305              1062.4960              1073.5893
 Red. masses --      2.5705                 2.6669                 2.1864
 Frc consts  --      1.6546                 1.7738                 1.4847
 IR Inten    --     19.6682                26.9456                 5.6958

                     67                     68                     69
                      A                      A                      A
 Frequencies --   1084.5027              1090.0971              1095.5607
 Red. masses --      2.1716                 3.0063                 1.4545
 Frc consts  --      1.5048                 2.1048                 1.0286
 IR Inten    --     21.5553                 8.6751                27.0236

                     70                     71                     72
                      A                      A                      A
 Frequencies --   1098.1231              1107.0505              1111.6725
 Red. masses --      1.8050                 1.7304                 1.5337
 Frc consts  --      1.2824                 1.2495                 1.1167
 IR Inten    --     12.6334                 8.1219                 6.8780

                     73                     74                     75
                      A                      A                      A
 Frequencies --   1130.0935              1133.0915              1136.7941
 Red. masses --      1.2650                 1.2188                 1.3140
 Frc consts  --      0.9518                 0.9219                 1.0005
 IR Inten    --      5.4126                 2.3677                18.9623

                     76                     77                     78
                      A                      A                      A
 Frequencies --   1141.1164              1142.3145              1149.4028
 Red. masses --      1.2682                 1.3885                 1.5445
 Frc consts  --      0.9730                 1.0675                 1.2022
 IR Inten    --     13.5027                 7.9455                 6.5010

                     79                     80                     81
                      A                      A                      A
 Frequencies --   1150.6026              1151.8529              1163.0612
 Red. masses --      1.4792                 1.5363                 1.6314
 Frc consts  --      1.1538                 1.2009                 1.3002
 IR Inten    --      1.7184                 2.0257                 8.7422

                     82                     83                     84
                      A                      A                      A
 Frequencies --   1172.7908              1182.0855              1190.6148
 Red. masses --      2.2171                 2.5087                 2.1461
 Frc consts  --      1.7967                 2.0653                 1.7924
 IR Inten    --     14.1436                22.6969                41.7233

                     85                     86                     87
                      A                      A                      A
 Frequencies --   1217.4187              1222.2161              1228.5137
 Red. masses --      3.1125                 2.4609                 4.5025
 Frc consts  --      2.7180                 2.1659                 4.0038
 IR Inten    --     39.7970                17.9835                22.6761

                     88                     89                     90
                      A                      A                      A
 Frequencies --   1253.9200              1262.1927              1268.8771
 Red. masses --      5.6434                 4.5676                 5.0285
 Frc consts  --      5.2279                 4.2874                 4.7701
 IR Inten    --     45.4284                12.3009                34.1335

                     91                     92                     93
                      A                      A                      A
 Frequencies --   1315.4795              1346.3247              1351.8689
 Red. masses --      4.2345                 5.3554                 7.0230
 Frc consts  --      4.3174                 5.7192                 7.5621
 IR Inten    --     62.4071                25.4996                 3.3151

                     94                     95                     96
                      A                      A                      A
 Frequencies --   4093.9280              4172.9542              4177.3352
 Red. masses --      1.0866                 1.0596                 1.0595
 Frc consts  --     10.7300                10.8711                10.8931
 IR Inten    --     33.1867                33.8482                24.9980

                     97                     98                     99
                      A                      A                      A
 Frequencies --   4178.0478              4180.8314              4183.8091
 Red. masses --      1.0603                 1.0584                 1.0592
 Frc consts  --     10.9045                10.8999                10.9242
 IR Inten    --     28.3559                32.5662                14.0181

                    100                    101                    102
                      A                      A                      A
 Frequencies --   4184.4380              4186.2531              4186.8407
 Red. masses --      1.0606                 1.0602                 1.0601
 Frc consts  --     10.9413                10.9467                10.9489
 IR Inten    --      8.9201                42.3091                21.6607

                    103                    104                    105
                      A                      A                      A
 Frequencies --   4191.2891              4191.7282              4248.6267
 Red. masses --      1.0606                 1.0606                 1.0332
 Frc consts  --     10.9775                10.9798                10.9883
 IR Inten    --     69.4202                13.8364                 5.1318

                    106                    107                    108
                      A                      A                      A
 Frequencies --   4283.0843              4287.4484              4291.5223
 Red. masses --      1.1084                 1.1093                 1.1094
 Frc consts  --     11.9802                12.0143                12.0386
 IR Inten    --     14.9418                 7.0075                 6.1822

                    109                    110                    111
                      A                      A                      A
 Frequencies --   4292.0148              4294.3874              4294.8731
 Red. masses --      1.1085                 1.1094                 1.1092
 Frc consts  --     12.0307                12.0539                12.0554
 IR Inten    --     10.2254                 6.2830                 3.9903

                    112                    113                    114
                      A                      A                      A
 Frequencies --   4298.6443              4299.2841              4301.8616
 Red. masses --      1.1090                 1.1091                 1.1085
 Frc consts  --     12.0738                12.0784                12.0863
 IR Inten    --     19.6569                13.6142                20.7013

                    115                    116                    117
                      A                      A                      A
 Frequencies --   4303.6246              4434.0256              4446.4468
 Red. masses --      1.1083                 1.1063                 1.1058
 Frc consts  --     12.0942                12.8155                12.8810
 IR Inten    --     21.5684                 3.0710                 2.3974

 - Thermochemistry -
 -------------------
 Temperature   298.150 Kelvin.  Pressure   1.00000 Atm.
 Atom     1 has atomic number  6 and mass  12.00000

 Molecular mass:   236.20010 amu.
 Principal axes and moments of inertia in atomic units:
                           1         2         3
     Eigenvalues --  2072.935953873.967224863.62085
           X            0.99997  -0.00778   0.00126
           Y            0.00778   0.99996  -0.00438
           Z           -0.00123   0.00439   0.99999
 This molecule is an asymmetric top.
 Rotational symmetry number  1.
 Warning -- assumption of classical behavior for rotation
           may cause significant error
 Rotational temperatures (Kelvin)      0.04178     0.02236     0.01781
 Rotational constants (GHZ):           0.87062     0.46586     0.37107
   20 imaginary frequencies ignored.
 Zero-point vibrational energy     994843.1 (Joules/Mol)
                                  237.77320 (Kcal/Mol)
 Warning -- explicit consideration of  14 degrees of freedom as
           vibrations may cause significant error
 Vibrational temperatures:     88.88   139.79   189.25   230.29   354.78
          (Kelvin)            414.40   572.70   641.24   655.81   679.02
                              721.68   773.14   784.89   848.81   893.50
                              932.03   965.02   980.44   990.91   993.73
                             1037.80  1052.96  1064.11  1076.11  1112.36
                             1166.67  1175.15  1179.07  1205.61  1250.31
                             1275.28  1304.34  1314.72  1335.48  1357.49
                             1373.69  1386.89  1395.29  1400.04  1427.43
                             1437.20  1444.82  1450.33  1503.85  1528.69
                             1544.66  1560.36  1568.41  1576.27  1579.95
                             1592.80  1599.45  1625.95  1630.27  1635.59
                             1641.81  1643.54  1653.73  1655.46  1657.26
                             1673.39  1687.38  1700.76  1713.03  1751.59
                             1758.50  1767.56  1804.11  1816.01  1825.63
                             1892.68  1937.06  1945.04  5890.25  6003.95
                             6010.25  6011.28  6015.28  6019.57  6020.47
                             6023.08  6023.93  6030.33  6030.96  6112.83
                             6162.40  6168.68  6174.54  6175.25  6178.67
                             6179.36  6184.79  6185.71  6189.42  6191.96
                             6379.57  6397.45

 Zero-point correction=                           0.378916 (Hartree/Particle)
 Thermal correction to Energy=                    0.390153
 Thermal correction to Enthalpy=                  0.391097
 Thermal correction to Gibbs Free Energy=         0.341811
 Sum of electronic and zero-point Energies=           -726.869562
 Sum of electronic and thermal Energies=              -726.858324
 Sum of electronic and thermal Enthalpies=            -726.857380
 Sum of electronic and thermal Free Energies=         -726.906666

                     E (Thermal)             CV                S
                      KCal/Mol        Cal/Mol-Kelvin    Cal/Mol-Kelvin
 Total                  244.825             51.940            103.732
 Electronic               0.000              0.000              0.000
 Translational            0.889              2.981             42.280
 Rotational               0.889              2.981             32.035
 Vibrational            243.047             45.979             29.417
 Vibration     1          0.597              1.973              4.400
 Vibration     2          0.603              1.951              3.511
 Vibration     3          0.612              1.922              2.924
 Vibration     4          0.622              1.891              2.549
 Vibration     5          0.661              1.768              1.755
 Vibration     6          0.685              1.696              1.486
 Vibration     7          0.764              1.474              0.970
 Vibration     8          0.805              1.370              0.809
 Vibration     9          0.814              1.348              0.778
 Vibration    10          0.829              1.312              0.732
 Vibration    11          0.857              1.246              0.654
 Vibration    12          0.892              1.167              0.571
 Vibration    13          0.901              1.149              0.554
 Vibration    14          0.947              1.053              0.467

 1\1\GINC-JST043\Freq\RPBE1PBE\def2SVP\C13H24N4\LAPLAZA\04-Mar-2023\0\\
 #p pop=(regular,nbo,savenbos) freq=noraman def2svp empiricaldispersion
 =gd3bj output=wfx pbe1pbe\\LUVGOA_Complex_2_Ligand_0_NN_Cu_oriented\\0
 ,1\C,0.11750114,2.4625184,-1.42010074\H,0.41742996,3.39747641,-1.54541
 884\H,-0.83750687,2.40583719,-1.67293488\C,0.92697967,1.54784322,-2.28
 752671\H,0.53252528,0.64069769,-2.26120838\H,0.8916683,1.86937446,-3.2
 2165355\C,3.05395905,0.46751234,-2.66542657\H,4.027233,0.58281235,-2.5
 2529796\H,2.8647996,0.60532282,-3.62806385\C,2.45274354,-0.30479318,1.

 Normal termination of Gaussian 16 at Sat Mar  4 13:01:59 2023.
