 Gaussian 16, Revision C.01,
 Gaussian 16:  ES64L-G16RevC.01  3-Jul-2019

 ----------------------------------------------------------------------
 #p pop=(regular,nbo,savenbos) freq=noraman def2svp empiricaldispersion
 =gd3bj output=wfx pbe1pbe
 ----------------------------------------------------------------------

 ----------------------------------------
 LUVHAN_Complex_1_Ligand_0_NN_Cu_oriented
 ----------------------------------------
 Symbolic Z-matrix:
 Charge =  0 Multiplicity = 1

                         Standard orientation:
 ---------------------------------------------------------------------
 Center     Atomic      Atomic             Coordinates (Angstroms)
 Number     Number       Type             X           Y           Z
 ---------------------------------------------------------------------
      1          7           0        1.174533   -0.877338   -0.780268
      2          7           0        1.795445    1.013136    0.426298
      3          7           0       -0.864036    1.016801   -0.594138
      4          6           0        2.672807   -0.740858   -0.963097
      5          1           0        3.135469   -1.577595   -0.703182
      6          1           0        2.893301   -0.533688   -1.905815
      7          6           0        3.081814    0.414372   -0.041509
      8          1           0        3.619726    1.082434   -0.536129
      9          1           0        3.611575    0.081181    0.724520
     10          6           0        1.362155    2.015300   -0.556916
     11          1           0        1.862952    2.855702   -0.405039
     12          1           0        1.581592    1.692795   -1.466797
     13          6           0       -0.103167    2.296934   -0.478118
     14          1           0       -0.367084    2.910676   -1.208912
     15          1           0       -0.314438    2.735233    0.384860
     16          6           0       -2.310305    1.307207   -0.694494
     17          1           0       -2.590676    1.850895    0.083291
     18          1           0       -2.483077    1.833957   -1.515708
     19          6           0       -0.561897    0.132922    0.594920
     20          6           0        0.937805   -0.161076    0.525459
     21          6           0       -0.913566    0.818557    1.921765
     22          1           0       -0.409100    1.654935    1.999954
     23          1           0       -1.873656    1.011809    1.945201
     24          6           0        1.384108   -1.007809    1.725112
     25          1           0        2.314290   -1.288875    1.598392
     26          7           0       -1.317517   -1.125625    0.458023
     27          6           0       -0.891459   -2.034686   -0.636773
     28          1           0       -1.307684   -2.920838   -0.489444
     29          1           0       -1.240525   -1.681252   -1.493191
     30          6           0        0.591902   -2.217221   -0.765064
     31          1           0        0.810461   -2.698614   -1.602715
     32          1           0        0.943980   -2.738171   -0.000659
     33          6           0       -3.117987    0.039213   -0.735018
     34          1           0       -2.953551   -0.426773   -1.593444
     35          1           0       -4.080967    0.262991   -0.689235
     36          6           0       -2.766553   -0.871431    0.396982
     37          1           0       -3.245427   -1.731355    0.286103
     38          1           0       -3.064455   -0.464159    1.248369
     39          1           0        0.811249   -1.799595    1.798952
     40          1           0        1.313064   -0.475157    2.545330
     41          1           0       -0.679930    0.226094    2.666399
 ---------------------------------------------------------------------

 SCF Done:  E(RPBE1PBE) =  -727.232518013     A.U. after   12 cycles

 The electronic state is 1-A.
 Alpha  occ. eigenvalues --  -14.36917 -14.36722 -14.35847 -14.35759 -10.27559
 Alpha  occ. eigenvalues --  -10.27007 -10.22649 -10.22163 -10.22127 -10.21953
 Alpha  occ. eigenvalues --  -10.21830 -10.21738 -10.21711 -10.21553 -10.19122
 Alpha  occ. eigenvalues --  -10.17711 -10.17401  -0.98786  -0.94407  -0.90569
 Alpha  occ. eigenvalues --   -0.86509  -0.81714  -0.80238  -0.76799  -0.74776
 Alpha  occ. eigenvalues --   -0.73513  -0.72239  -0.67542  -0.65541  -0.64797
 Alpha  occ. eigenvalues --   -0.63058  -0.60273  -0.57851  -0.53110  -0.52777
 Alpha  occ. eigenvalues --   -0.51412  -0.51152  -0.49068  -0.48840  -0.47938
 Alpha  occ. eigenvalues --   -0.46393  -0.45491  -0.44413  -0.43687  -0.43201
 Alpha  occ. eigenvalues --   -0.42315  -0.41924  -0.40869  -0.40447  -0.40278
 Alpha  occ. eigenvalues --   -0.39606  -0.38992  -0.38890  -0.37690  -0.37305
 Alpha  occ. eigenvalues --   -0.35989  -0.35707  -0.34732  -0.33478  -0.32407
 Alpha  occ. eigenvalues --   -0.30758  -0.22431  -0.22158  -0.21016  -0.19192
 Alpha virt. eigenvalues --    0.08011   0.08999   0.09868   0.10518   0.11541
 Alpha virt. eigenvalues --    0.12086   0.12468   0.13736   0.13946   0.14121
 Alpha virt. eigenvalues --    0.15068   0.15377   0.16024   0.16200   0.16904

 Mulliken charges:
               1
     1  N   -0.449279
     2  N   -0.428965
     3  N   -0.434263
     4  C    0.249911
     5  H   -0.030727
     6  H   -0.017623
     7  C    0.188377
     8  H   -0.020204
     9  H   -0.011758
    10  C    0.305295
    11  H   -0.028550
    12  H   -0.036477
    13  C    0.215515
    14  H   -0.028413
    15  H   -0.043624
    16  C    0.237647
    17  H   -0.054895
    18  H   -0.023111
    19  C   -0.061667
    20  C   -0.166482
    21  C    0.308134
    22  H   -0.019282
    23  H   -0.027331
    24  C    0.343186
    25  H   -0.048037
    26  N   -0.448031
    27  C    0.254954
    28  H   -0.029331
    29  H   -0.034965
    30  C    0.278350
    31  H   -0.024667
    32  H   -0.049950
    33  C    0.066912
    34  H   -0.011271
    35  H   -0.022208
    36  C    0.220977
    37  H   -0.025374
    38  H   -0.029252
    39  H   -0.017055
    40  H   -0.020427
    41  H   -0.026039
 Sum of Mulliken charges =  -0.00000

 Dipole moment (field-independent basis, Debye):
    X=             -0.1262    Y=             -0.0521    Z=             -0.4646  Tot=              0.4842
 Quadrupole moment (field-independent basis, Debye-Ang):
   XX=            -94.7688   YY=            -98.7817   ZZ=           -105.4798
   XY=             -1.5639   XZ=             -1.4827   YZ=             -0.0284

  Exact polarizability:     156.423       0.452     139.391      -1.212      -0.203     120.805
 Approx polarizability:     198.006       1.874     192.847      -2.004       0.511     180.702

 Summary of Natural Population Analysis:

                                       Natural Population
                Natural  -----------------------------------------------
    Atom  No    Charge         Core      Valence    Rydberg      Total
 -----------------------------------------------------------------------
      N    1   -0.58857      1.99932     5.57330    0.01595     7.58857
      N    2   -0.57613      1.99929     5.56118    0.01566     7.57613
      N    3   -0.58616      1.99934     5.57064    0.01618     7.58616
      C    4   -0.18029      1.99913     4.16665    0.01451     6.18029
      H    5    0.17086      0.00000     0.82475    0.00439     0.82914
      H    6    0.18483      0.00000     0.81218    0.00299     0.81517
      C    7   -0.17029      1.99913     4.15418    0.01698     6.17029
      H    8    0.19231      0.00000     0.80482    0.00288     0.80769
      H    9    0.18755      0.00000     0.80958    0.00287     0.81245
      C   10   -0.15913      1.99908     4.14216    0.01789     6.15913
      H   11    0.19029      0.00000     0.80665    0.00306     0.80971
      H   12    0.17391      0.00000     0.82034    0.00574     0.82609
      C   13   -0.16689      1.99909     4.15098    0.01681     6.16689
      H   14    0.19642      0.00000     0.80050    0.00308     0.80358
      H   15    0.16357      0.00000     0.83054    0.00589     0.83643
      C   16   -0.15812      1.99910     4.14176    0.01727     6.15812
      H   17    0.15506      0.00000     0.83895    0.00599     0.84494
      H   18    0.19189      0.00000     0.80492    0.00319     0.80811
      C   19    0.34974      1.99883     3.62323    0.02820     5.65026
      C   20    0.34899      1.99888     3.62259    0.02954     5.65101
      C   21   -0.58794      1.99915     4.57702    0.01176     6.58794
      H   22    0.20548      0.00000     0.79111    0.00340     0.79452
      H   23    0.19596      0.00000     0.80177    0.00227     0.80404
      C   24   -0.59014      1.99915     4.57869    0.01230     6.59014
      H   25    0.19652      0.00000     0.80131    0.00217     0.80348
      N   26   -0.58723      1.99928     5.57317    0.01479     7.58723
      C   27   -0.15757      1.99906     4.14080    0.01770     6.15757
      H   28    0.18811      0.00000     0.80872    0.00317     0.81189
      H   29    0.17340      0.00000     0.82054    0.00606     0.82660
      C   30   -0.15780      1.99911     4.14259    0.01610     6.15780
      H   31    0.19750      0.00000     0.79961    0.00289     0.80250
      H   32    0.16153      0.00000     0.83263    0.00583     0.83847
      C   33   -0.39942      1.99913     4.38835    0.01194     6.39942
      H   34    0.19225      0.00000     0.80375    0.00400     0.80775
      H   35    0.19970      0.00000     0.79660    0.00370     0.80030
      C   36   -0.15710      1.99910     4.13929    0.01871     6.15710
      H   37    0.19306      0.00000     0.80378    0.00316     0.80694
      H   38    0.18459      0.00000     0.81181    0.00360     0.81541
      H   39    0.20890      0.00000     0.78713    0.00397     0.79110
      H   40    0.20980      0.00000     0.78726    0.00294     0.79020
      H   41    0.21055      0.00000     0.78657    0.00287     0.78945
 =======================================================================
   * Total *    0.00000     33.98516    95.63242    0.38242   130.00000

 ******   21 imaginary frequencies (negative Signs) ******

                      1                      2                      3
                      A                      A                      A
 Frequencies --  -1222.3151             -1210.1058              -920.3934
 Red. masses --      1.0093                 1.0104                 1.0511
 Frc consts  --      0.8884                 0.8717                 0.5246
 IR Inten    --      0.1402                 0.0145                 2.8881

                      4                      5                      6
                      A                      A                      A
 Frequencies --   -897.7907              -887.1140              -863.5449
 Red. masses --      1.0444                 1.0599                 1.0563
 Frc consts  --      0.4960                 0.4914                 0.4641
 IR Inten    --      5.7589                 3.3182                 2.8873

                      7                      8                      9
                      A                      A                      A
 Frequencies --   -860.4772              -850.8033              -846.9028
 Red. masses --      1.0671                 1.0819                 1.0452
 Frc consts  --      0.4655                 0.4614                 0.4417
 IR Inten    --      3.8071                 1.6793                 0.4084

                     10                     11                     12
                      A                      A                      A
 Frequencies --   -839.8891              -834.6360              -795.0697
 Red. masses --      1.0794                 1.0665                 1.0686
 Frc consts  --      0.4486                 0.4377                 0.3980
 IR Inten    --      2.1285                 2.0491                 6.4193

                     13                     14                     15
                      A                      A                      A
 Frequencies --   -787.7924              -776.3699              -756.5963
 Red. masses --      1.0465                 1.0555                 1.0277
 Frc consts  --      0.3827                 0.3749                 0.3466
 IR Inten    --      0.0356                 8.3989                 0.2749

                     16                     17                     18
                      A                      A                      A
 Frequencies --   -346.2532              -309.2783              -295.6580
 Red. masses --      1.7447                 2.0631                 1.9837
 Frc consts  --      0.1232                 0.1163                 0.1022
 IR Inten    --      1.7175                 1.5476                 1.9028

                     19                     20                     21
                      A                      A                      A
 Frequencies --   -247.9961              -197.7378              -156.4823
 Red. masses --      1.7521                 2.1297                 2.2780
 Frc consts  --      0.0635                 0.0491                 0.0329
 IR Inten    --      0.0419                 0.5992                 1.0595

                     22                     23                     24
                      A                      A                      A
 Frequencies --     53.6040               135.6492               191.2297
 Red. masses --      1.8863                 2.1518                 1.6879
 Frc consts  --      0.0032                 0.0233                 0.0364
 IR Inten    --      2.7295                 0.7715                 1.2726

                     25                     26                     27
                      A                      A                      A
 Frequencies --    261.2829               334.8076               410.5207
 Red. masses --      3.2356                 2.3943                 2.0659
 Frc consts  --      0.1301                 0.1581                 0.2051
 IR Inten    --      0.2247                 0.7267                 1.7031

                     28                     29                     30
                      A                      A                      A
 Frequencies --    448.0445               455.4466               474.4410
 Red. masses --      2.1872                 2.6541                 2.3584
 Frc consts  --      0.2587                 0.3244                 0.3128
 IR Inten    --      4.0666                 0.6579                 2.8719

                     31                     32                     33
                      A                      A                      A
 Frequencies --    494.9128               505.3527               509.3791
 Red. masses --      3.5998                 2.7824                 2.9259
 Frc consts  --      0.5195                 0.4187                 0.4473
 IR Inten    --      0.1906                 0.9095                 3.0933

                     34                     35                     36
                      A                      A                      A
 Frequencies --    530.9500               568.1422               572.3236
 Red. masses --      2.7737                 2.6605                 2.2194
 Frc consts  --      0.4607                 0.5060                 0.4283
 IR Inten    --      1.3993                 1.7183                 3.4998

                     37                     38                     39
                      A                      A                      A
 Frequencies --    598.1182               634.1571               651.2431
 Red. masses --      2.7016                 1.4380                 1.5632
 Frc consts  --      0.5694                 0.3407                 0.3906
 IR Inten    --      3.9550                 1.4955                 2.4233

                     40                     41                     42
                      A                      A                      A
 Frequencies --    682.2491               683.2590               706.4522
 Red. masses --      1.5994                 1.6190                 1.7023
 Frc consts  --      0.4386                 0.4453                 0.5006
 IR Inten    --     12.3651                 6.0309                 2.4634

                     43                     44                     45
                      A                      A                      A
 Frequencies --    718.9023               731.4713               743.8014
 Red. masses --      2.0094                 1.1997                 1.3097
 Frc consts  --      0.6119                 0.3782                 0.4269
 IR Inten    --      0.4724                15.4272                26.4510

                     46                     47                     48
                      A                      A                      A
 Frequencies --    745.1777               750.5802               814.9465
 Red. masses --      1.4546                 1.4930                 2.3456
 Frc consts  --      0.4759                 0.4956                 0.9178
 IR Inten    --     11.2183                10.3832                 3.0173

                     49                     50                     51
                      A                      A                      A
 Frequencies --    826.0717               843.1033               885.1561
 Red. masses --      2.3410                 2.3446                 2.9087
 Frc consts  --      0.9412                 0.9819                 1.3427
 IR Inten    --      0.7639                 2.4926                 0.7282

                     52                     53                     54
                      A                      A                      A
 Frequencies --    887.7238               913.4199               918.9806
 Red. masses --      2.4909                 2.3594                 2.9583
 Frc consts  --      1.1565                 1.1598                 1.4720
 IR Inten    --      4.7367                 9.2464                 4.9046

                     55                     56                     57
                      A                      A                      A
 Frequencies --    929.2773               936.7933               958.7348
 Red. masses --      2.4264                 2.8296                 2.7718
 Frc consts  --      1.2346                 1.4630                 1.5011
 IR Inten    --      3.7675                 2.0338                 5.4014

                     58                     59                     60
                      A                      A                      A
 Frequencies --    966.0840               978.0999               990.3652
 Red. masses --      1.9876                 2.8810                 2.2523
 Frc consts  --      1.0930                 1.6239                 1.3016
 IR Inten    --     15.6467                 5.1579                36.7107

                     61                     62                     63
                      A                      A                      A
 Frequencies --    999.4683              1001.6660              1011.7295
 Red. masses --      1.8289                 2.5936                 1.7094
 Frc consts  --      1.0764                 1.5332                 1.0309
 IR Inten    --      6.6986                11.7687                17.7153

                     64                     65                     66
                      A                      A                      A
 Frequencies --   1020.4140              1052.5408              1056.6112
 Red. masses --      2.3245                 4.0622                 4.3599
 Frc consts  --      1.4261                 2.6515                 2.8678
 IR Inten    --     19.5334                34.4041                 2.7629

                     67                     68                     69
                      A                      A                      A
 Frequencies --   1076.9193              1088.4271              1098.8946
 Red. masses --      2.5358                 2.2959                 2.0611
 Frc consts  --      1.7327                 1.6025                 1.4664
 IR Inten    --     15.0464                19.8047                 3.7938

                     70                     71                     72
                      A                      A                      A
 Frequencies --   1103.7721              1112.5197              1122.1147
 Red. masses --      1.2952                 1.1792                 1.5305
 Frc consts  --      0.9297                 0.8599                 1.1354
 IR Inten    --     18.5367                36.7634                 3.0777

                     73                     74                     75
                      A                      A                      A
 Frequencies --   1127.7321              1131.4168              1136.9271
 Red. masses --      1.5259                 1.3327                 1.3274
 Frc consts  --      1.1433                 1.0052                 1.0109
 IR Inten    --      6.3110                10.1018                 5.8978

                     76                     77                     78
                      A                      A                      A
 Frequencies --   1141.4849              1150.8010              1154.9590
 Red. masses --      1.3483                 1.4038                 1.3030
 Frc consts  --      1.0351                 1.0953                 1.0240
 IR Inten    --      3.9256                 1.3767                 2.3546

                     79                     80                     81
                      A                      A                      A
 Frequencies --   1169.8828              1173.8817              1177.6864
 Red. masses --      1.4654                 2.1240                 1.3244
 Frc consts  --      1.1816                 1.7244                 1.0823
 IR Inten    --      2.7838                12.4925                 0.5012

                     82                     83                     84
                      A                      A                      A
 Frequencies --   1183.0200              1187.7122              1192.6169
 Red. masses --      1.2787                 1.3472                 3.0306
 Frc consts  --      1.0544                 1.1197                 2.5397
 IR Inten    --      9.5679                 7.1835                15.4730

                     85                     86                     87
                      A                      A                      A
 Frequencies --   1211.3887              1226.2563              1234.1232
 Red. masses --      2.2661                 2.6629                 4.1756
 Frc consts  --      1.9593                 2.3593                 3.7470
 IR Inten    --     26.9493                58.8292                38.8777

                     88                     89                     90
                      A                      A                      A
 Frequencies --   1246.6017              1258.9813              1273.9242
 Red. masses --      4.1945                 6.2919                 5.1749
 Frc consts  --      3.8405                 5.8759                 4.9481
 IR Inten    --     26.3103                34.3882                15.2759

                     91                     92                     93
                      A                      A                      A
 Frequencies --   1283.5415              1322.5116              1398.8994
 Red. masses --      3.9263                 5.5934                 6.5340
 Frc consts  --      3.8111                 5.7640                 7.5336
 IR Inten    --     40.9888                30.9411                 0.7318

                     94                     95                     96
                      A                      A                      A
 Frequencies --   4170.4117              4173.3999              4175.7978
 Red. masses --      1.0589                 1.0586                 1.0588
 Frc consts  --     10.8508                10.8633                10.8776
 IR Inten    --     32.9261                25.5120                39.5992

                     97                     98                     99
                      A                      A                      A
 Frequencies --   4177.1218              4180.7237              4181.8607
 Red. masses --      1.0583                 1.0605                 1.0609
 Frc consts  --     10.8794                10.9214                10.9312
 IR Inten    --     18.6635                36.5353                26.8512

                    100                    101                    102
                      A                      A                      A
 Frequencies --   4184.4438              4189.0265              4196.1723
 Red. masses --      1.0599                 1.0615                 1.0597
 Frc consts  --     10.9343                10.9746                10.9937
 IR Inten    --     16.1689                46.1685                23.7040

                    103                    104                    105
                      A                      A                      A
 Frequencies --   4238.2242              4244.4588              4278.1618
 Red. masses --      1.0328                 1.0329                 1.1091
 Frc consts  --     10.9299                10.9640                11.9599
 IR Inten    --      6.0049                 4.9707                16.6580

                    106                    107                    108
                      A                      A                      A
 Frequencies --   4282.8541              4283.4266              4286.4583
 Red. masses --      1.1087                 1.1087                 1.1110
 Frc consts  --     11.9819                11.9851                12.0275
 IR Inten    --      2.1880                 5.8787                16.2394

                    109                    110                    111
                      A                      A                      A
 Frequencies --   4290.9886              4291.9420              4292.9348
 Red. masses --      1.1089                 1.1095                 1.1088
 Frc consts  --     12.0296                12.0414                12.0399
 IR Inten    --     14.3494                15.3673                 8.5141

                    112                    113                    114
                      A                      A                      A
 Frequencies --   4300.2171              4312.0062              4426.1010
 Red. masses --      1.1082                 1.1111                 1.1066
 Frc consts  --     12.0738                12.1724                12.7725
 IR Inten    --     19.1607                 9.0402                 4.3477

                    115                    116                    117
                      A                      A                      A
 Frequencies --   4430.4005              4434.1418              4436.5915
 Red. masses --      1.1061                 1.1060                 1.1062
 Frc consts  --     12.7919                12.8120                12.8285
 IR Inten    --      1.6444                 3.9949                 0.8422

 - Thermochemistry -
 -------------------
 Temperature   298.150 Kelvin.  Pressure   1.00000 Atm.
 Atom     1 has atomic number  7 and mass  14.00307

 Molecular mass:   236.20010 amu.
 Principal axes and moments of inertia in atomic units:
                           1         2         3
     Eigenvalues --  2187.318243499.634044268.54364
           X            0.99991  -0.01348  -0.00013
           Y            0.01348   0.99991  -0.00029
           Z            0.00013   0.00028   1.00000
 This molecule is an asymmetric top.
 Rotational symmetry number  1.
 Warning -- assumption of classical behavior for rotation
           may cause significant error
 Rotational temperatures (Kelvin)      0.03960     0.02475     0.02029
 Rotational constants (GHZ):           0.82509     0.51569     0.42280
   21 imaginary frequencies ignored.
 Zero-point vibrational energy     993065.3 (Joules/Mol)
                                  237.34829 (Kcal/Mol)
 Warning -- explicit consideration of  16 degrees of freedom as
           vibrations may cause significant error
 Vibrational temperatures:     77.12   195.17   275.14   375.93   481.71
          (Kelvin)            590.65   644.64   655.29   682.61   712.07
                              727.09   732.88   763.92   817.43   823.45
                              860.56   912.41   936.99   981.60   983.06
                             1016.43  1034.34  1052.42  1070.16  1072.14
                             1079.92  1172.53  1188.53  1213.04  1273.54
                             1277.24  1314.21  1322.21  1337.02  1347.84
                             1379.41  1389.98  1407.27  1424.91  1438.01
                             1441.17  1455.65  1468.15  1514.37  1520.23
                             1549.45  1566.00  1581.06  1588.08  1600.67
                             1614.47  1622.55  1627.86  1635.78  1642.34
                             1655.75  1661.73  1683.20  1688.95  1694.43
                             1702.10  1708.85  1715.91  1742.92  1764.31
                             1775.63  1793.58  1811.39  1832.89  1846.73
                             1902.80  2012.70  6000.29  6004.59  6008.04
                             6009.95  6015.13  6016.76  6020.48  6027.07
                             6037.36  6097.86  6106.83  6155.32  6162.07
                             6162.90  6167.26  6173.78  6175.15  6176.58
                             6187.05  6204.02  6368.17  6374.36  6379.74
                             6383.27

 Zero-point correction=                           0.378239 (Hartree/Particle)
 Thermal correction to Energy=                    0.388948
 Thermal correction to Enthalpy=                  0.389892
 Thermal correction to Gibbs Free Energy=         0.342102
 Sum of electronic and zero-point Energies=           -726.854279
 Sum of electronic and thermal Energies=              -726.843570
 Sum of electronic and thermal Enthalpies=            -726.842626
 Sum of electronic and thermal Free Energies=         -726.890416

                     E (Thermal)             CV                S
                      KCal/Mol        Cal/Mol-Kelvin    Cal/Mol-Kelvin
 Total                  244.069             51.298            100.584
 Electronic               0.000              0.000              0.000
 Translational            0.889              2.981             42.280
 Rotational               0.889              2.981             31.858
 Vibrational            242.291             45.337             26.446
 Vibration     1          0.596              1.976              4.680
 Vibration     2          0.613              1.918              2.864
 Vibration     3          0.634              1.852              2.216
 Vibration     4          0.669              1.744              1.653
 Vibration     5          0.716              1.606              1.237
 Vibration     6          0.775              1.447              0.925
 Vibration     7          0.807              1.365              0.802
 Vibration     8          0.814              1.349              0.779
 Vibration     9          0.831              1.307              0.725
 Vibration    10          0.851              1.261              0.671
 Vibration    11          0.861              1.238              0.645
 Vibration    12          0.865              1.229              0.635
 Vibration    13          0.886              1.182              0.585
 Vibration    14          0.924              1.100              0.508
 Vibration    15          0.929              1.091              0.500
 Vibration    16          0.956              1.036              0.453

 1\1\GINC-JST042\Freq\RPBE1PBE\def2SVP\C13H24N4\LAPLAZA\04-Mar-2023\0\\
 #p pop=(regular,nbo,savenbos) freq=noraman def2svp empiricaldispersion
 =gd3bj output=wfx pbe1pbe\\LUVHAN_Complex_1_Ligand_0_NN_Cu_oriented\\0
 ,1\N,1.0947006,-1.78955788,0.\N,-0.02901506,-2.82555712,1.75476218\N,-
 1.64522874,-1.26902096,0.\C,2.10376646,-1.91458888,1.12384641\H,2.9200
 6863,-2.38156118,0.81187032\H,2.35831338,-1.02149707,1.46713292\C,1.39
 152552,-2.73216621,2.2080274\H,1.45016464,-2.27603188,3.08484453\H,1.7
 9290556,-3.63264299,2.28863762\C,-0.75265137,-1.64252423,2.24011434\H,

 Normal termination of Gaussian 16 at Sat Mar  4 13:00:24 2023.
