 Gaussian 16, Revision C.01,
 Gaussian 16:  ES64L-G16RevC.01  3-Jul-2019

 ----------------------------------------------------------------------
 #p pop=(regular,nbo,savenbos) freq=noraman def2svp empiricaldispersion
 =gd3bj output=wfx pbe1pbe
 ----------------------------------------------------------------------

 -----------------------------------------
 MABGON_Complex_17_Ligand_2_NN_Cu_oriented
 -----------------------------------------
 Symbolic Z-matrix:
 Charge =  0 Multiplicity = 1

                         Standard orientation:
 ---------------------------------------------------------------------
 Center     Atomic      Atomic             Coordinates (Angstroms)
 Number     Number       Type             X           Y           Z
 ---------------------------------------------------------------------
      1          7           0        2.542802    0.321226    1.043524
      2          7           0        0.032162    0.998673    0.031676
      3          6           0        4.354758   -0.938414   -0.627342
      4          1           0        4.952707   -1.407825   -1.193009
      5          6           0        3.161967   -0.470207   -1.114377
      6          1           0        2.961525   -0.556116   -2.039272
      7          6           0        2.251234    0.123108   -0.267023
      8          6           0        0.948384    0.568634   -0.744938
      9          1           0        0.772245    0.538954   -1.677465
     10          6           0       -1.237242    1.356892   -0.610045
     11          1           0       -1.116933    1.297712   -1.601022
     12          6           0       -2.288526    0.295094   -0.181443
     13          6           0       -2.162479   -0.950393   -0.925739
     14          1           0       -1.512547   -1.048762   -1.611509
     15          6           0       -3.030502   -1.994154   -0.600762
     16          1           0       -3.038508   -2.820476   -1.071568
     17          6           0       -3.827762   -1.750482    0.408175
     18          1           0       -4.371091   -2.491157    0.650971
     19          6           0       -4.024778   -0.690120    1.151922
     20          1           0       -4.681714   -0.655100    1.838577
     21          6           0       -3.095019    0.519726    0.808606
     22          1           0       -3.119696    1.343657    1.281364
     23          6           0       -1.634421    2.761465   -0.263138
     24          1           0       -1.654183    2.864170    0.711095
     25          1           0       -2.523888    2.949865   -0.628734
     26          1           0       -0.985777    3.389339   -0.646321
     27          6           0        3.731620   -0.069380    1.487351
     28          1           0        3.961771    0.095119    2.394489
     29          6           0        4.658659   -0.718392    0.655975
     30          1           0        5.495993   -0.998945    1.002675
 ---------------------------------------------------------------------

 SCF Done:  E(RPBE1PBE) =  -649.915847888     A.U. after   14 cycles

 The electronic state is 1-A.
 Alpha  occ. eigenvalues --  -14.38318 -14.37829 -10.27150 -10.25769 -10.25397
 Alpha  occ. eigenvalues --  -10.24613 -10.23656 -10.23339 -10.23131 -10.22886
 Alpha  occ. eigenvalues --  -10.22438 -10.22377 -10.22132 -10.21305 -10.19707
 Alpha  occ. eigenvalues --  -10.18449  -0.97033  -0.93871  -0.88112  -0.84065
 Alpha  occ. eigenvalues --   -0.82192  -0.79460  -0.76453  -0.75960  -0.69635
 Alpha  occ. eigenvalues --   -0.67390  -0.65839  -0.64556  -0.61025  -0.58949
 Alpha  occ. eigenvalues --   -0.56715  -0.55396  -0.52565  -0.51543  -0.50541
 Alpha  occ. eigenvalues --   -0.48689  -0.47637  -0.47425  -0.45949  -0.44211
 Alpha  occ. eigenvalues --   -0.43583  -0.42720  -0.41317  -0.40739  -0.40261
 Alpha  occ. eigenvalues --   -0.38692  -0.38036  -0.36792  -0.34480  -0.31679
 Alpha  occ. eigenvalues --   -0.30450  -0.27904  -0.26417  -0.26203  -0.25528
 Alpha  occ. eigenvalues --   -0.24725
 Alpha virt. eigenvalues --   -0.05138  -0.02058  -0.01998   0.02486   0.05386
 Alpha virt. eigenvalues --    0.08682   0.09880   0.10801   0.11097   0.12875
 Alpha virt. eigenvalues --    0.14212   0.14597   0.15207   0.16221   0.16530

 Mulliken charges:
               1
     1  N   -0.152124
     2  N   -0.157407
     3  C    0.152056
     4  H   -0.073109
     5  C    0.067109
     6  H   -0.084967
     7  C    0.001767
     8  C    0.135621
     9  H   -0.100684
    10  C    0.024789
    11  H   -0.041278
    12  C    0.012769
    13  C    0.084419
    14  H   -0.093868
    15  C    0.092466
    16  H   -0.085946
    17  C    0.102027
    18  H   -0.074094
    19  C    0.080733
    20  H   -0.075892
    21  C    0.014887
    22  H   -0.088341
    23  C    0.202226
    24  H    0.005284
    25  H   -0.010024
    26  H   -0.016597
    27  C    0.178039
    28  H   -0.053730
    29  C    0.020667
    30  H   -0.066797
 Sum of Mulliken charges =  -0.00000

 Dipole moment (field-independent basis, Debye):
    X=              1.4664    Y=             -1.1291    Z=             -2.2793  Tot=              2.9360
 Quadrupole moment (field-independent basis, Debye-Ang):
   XX=            -76.7926   YY=            -89.0875   ZZ=            -88.4726
   XY=             -4.0210   XZ=             -3.7296   YZ=              0.3519

  Exact polarizability:     200.631     -11.907     125.337     -11.761      10.199     124.715
 Approx polarizability:     262.857     -26.026     192.467     -31.955      29.090     218.527

 Summary of Natural Population Analysis:

                                       Natural Population
                Natural  -----------------------------------------------
    Atom  No    Charge         Core      Valence    Rydberg      Total
 -----------------------------------------------------------------------
      N    1   -0.44792      1.99931     5.43186    0.01675     7.44792
      N    2   -0.41378      1.99934     5.39470    0.01974     7.41378
      C    3   -0.14792      1.99908     4.13469    0.01416     6.14792
      H    4    0.18247      0.00000     0.81448    0.00305     0.81753
      C    5   -0.19670      1.99902     4.18343    0.01426     6.19670
      H    6    0.18338      0.00000     0.81329    0.00333     0.81662
      C    7    0.16662      1.99900     3.80953    0.02485     5.83338
      C    8    0.10655      1.99905     3.86815    0.02626     5.89345
      H    9    0.12761      0.00000     0.86581    0.00658     0.87239
      C   10   -0.00926      1.99897     3.98869    0.02161     6.00926
      H   11    0.16868      0.00000     0.82451    0.00681     0.83132
      C   12   -0.05919      1.99887     4.04143    0.01889     6.05919
      C   13   -0.14167      1.99908     4.12753    0.01506     6.14167
      H   14    0.17196      0.00000     0.82486    0.00318     0.82804
      C   15   -0.16473      1.99902     4.15118    0.01453     6.16473
      H   16    0.18338      0.00000     0.81361    0.00301     0.81662
      C   17   -0.22478      1.99898     4.21096    0.01484     6.22478
      H   18    0.17999      0.00000     0.81558    0.00443     0.82001
      C   19   -0.13113      1.99900     4.11695    0.01518     6.13113
      H   20    0.17651      0.00000     0.82082    0.00267     0.82349
      C   21   -0.17326      1.99868     4.15934    0.01524     6.17326
      H   22    0.18503      0.00000     0.81216    0.00281     0.81497
      C   23   -0.56591      1.99917     4.55667    0.01007     6.56591
      H   24    0.19770      0.00000     0.79861    0.00369     0.80230
      H   25    0.19836      0.00000     0.79909    0.00255     0.80164
      H   26    0.20066      0.00000     0.79658    0.00276     0.79934
      C   27    0.11671      1.99915     3.86318    0.02096     5.88329
      H   28    0.15928      0.00000     0.83783    0.00289     0.84072
      C   29   -0.20958      1.99908     4.19731    0.01318     6.20958
      H   30    0.18096      0.00000     0.81580    0.00324     0.81904
 =======================================================================
   * Total *    0.00000     31.98480    79.68862    0.32658   112.00000

 ******   24 imaginary frequencies (negative Signs) ******

                      1                      2                      3
                      A                      A                      A
 Frequencies --  -1276.6565             -1265.1357             -1217.2351
 Red. masses --      1.0838                 1.0807                 1.0091
 Frc consts  --      1.0407                 1.0191                 0.8809
 IR Inten    --     72.2113                48.3176                 0.3019

                      4                      5                      6
                      A                      A                      A
 Frequencies --  -1195.4224             -1183.9287             -1133.7378
 Red. masses --      1.0470                 1.0450                 1.0338
 Frc consts  --      0.8816                 0.8631                 0.7829
 IR Inten    --     15.4299                 2.3995                 2.1197

                      7                      8                      9
                      A                      A                      A
 Frequencies --  -1113.1561             -1096.7544             -1059.6145
 Red. masses --      1.0479                 1.0153                 1.0208
 Frc consts  --      0.7651                 0.7196                 0.6753
 IR Inten    --      1.1203                 0.1507                 0.0977

                     10                     11                     12
                      A                      A                      A
 Frequencies --   -975.6887              -922.2604              -820.8974
 Red. masses --      1.0253                 1.0225                 1.0836
 Frc consts  --      0.5751                 0.5124                 0.4302
 IR Inten    --      1.1554                 0.0707                 9.0358

                     13                     14                     15
                      A                      A                      A
 Frequencies --   -788.0231              -723.7757              -657.5205
 Red. masses --      1.0907                 1.1470                 1.1297
 Frc consts  --      0.3991                 0.3540                 0.2878
 IR Inten    --     11.4814                 3.5810                 0.2247

                     16                     17                     18
                      A                      A                      A
 Frequencies --   -654.6825              -597.5457              -590.4019
 Red. masses --      1.0765                 1.2397                 1.1900
 Frc consts  --      0.2718                 0.2608                 0.2444
 IR Inten    --      8.4962                 2.1668                 0.5203

                     19                     20                     21
                      A                      A                      A
 Frequencies --   -536.0544              -457.2996              -400.7675
 Red. masses --      1.3622                 1.0835                 1.3723
 Frc consts  --      0.2306                 0.1335                 0.1299
 IR Inten    --      8.9486                 9.1809                 0.1915

                     22                     23                     24
                      A                      A                      A
 Frequencies --   -304.7501              -263.6182              -112.4290
 Red. masses --      1.8056                 1.1492                 7.3353
 Frc consts  --      0.0988                 0.0471                 0.0546
 IR Inten    --      3.7330                16.1234                 0.0409

                     25                     26                     27
                      A                      A                      A
 Frequencies --    106.6222               159.2853               165.8819
 Red. masses --      5.5354                 6.5140                 9.3148
 Frc consts  --      0.0371                 0.0974                 0.1510
 IR Inten    --      0.2193                 0.0956                 0.4254

                     28                     29                     30
                      A                      A                      A
 Frequencies --    244.7636               293.0135               358.7501
 Red. masses --      9.6368                 6.5135                 6.9660
 Frc consts  --      0.3402                 0.3295                 0.5282
 IR Inten    --      0.0324                 0.2914                 0.1392

                     31                     32                     33
                      A                      A                      A
 Frequencies --    415.8823               438.6201               453.2810
 Red. masses --      2.3067                 5.3819                 7.8819
 Frc consts  --      0.2351                 0.6100                 0.9542
 IR Inten    --      0.3775                 0.3237                 1.4984

                     34                     35                     36
                      A                      A                      A
 Frequencies --    515.8807               553.8185               562.4360
 Red. masses --     11.2393                 4.6736                 4.2571
 Frc consts  --      1.7623                 0.8446                 0.7934
 IR Inten    --      1.4777                 4.0348                 2.3011

                     37                     38                     39
                      A                      A                      A
 Frequencies --    643.7349               647.4957               677.2921
 Red. masses --      4.2413                 3.5561                10.0665
 Frc consts  --      1.0355                 0.8784                 2.7207
 IR Inten    --      0.5602                 5.3586                 0.9513

                     40                     41                     42
                      A                      A                      A
 Frequencies --    720.8150               738.1066               755.8337
 Red. masses --      4.0405                 4.4843                 3.0357
 Frc consts  --      1.2369                 1.4394                 1.0218
 IR Inten    --      6.0295                 2.7737                 4.0967

                     43                     44                     45
                      A                      A                      A
 Frequencies --    763.6060               768.8776               792.8147
 Red. masses --      1.6360                 3.0713                 2.7779
 Frc consts  --      0.5620                 1.0698                 1.0288
 IR Inten    --     10.5467                 1.3835                22.1738

                     46                     47                     48
                      A                      A                      A
 Frequencies --    799.2736               833.9459               865.9916
 Red. masses --      3.6720                10.0801                 2.3838
 Frc consts  --      1.3821                 4.1304                 1.0533
 IR Inten    --      5.1334                 3.2460                 2.1748

                     49                     50                     51
                      A                      A                      A
 Frequencies --    898.1056               933.3260               972.7482
 Red. masses --      2.3521                 3.4256                 1.6202
 Frc consts  --      1.1178                 1.7581                 0.9033
 IR Inten    --      3.5515                21.4702                11.4122

                     52                     53                     54
                      A                      A                      A
 Frequencies --    993.1649              1042.7957              1062.6995
 Red. masses --      3.9955                 7.6391                 3.4541
 Frc consts  --      2.3220                 4.8943                 2.2983
 IR Inten    --     21.3480                 1.8329                 1.5906

                     55                     56                     57
                      A                      A                      A
 Frequencies --   1104.9600              1152.9639              1164.9899
 Red. masses --      1.9334                 3.3969                 1.7358
 Frc consts  --      1.3908                 2.6605                 1.3880
 IR Inten    --     32.5177                 2.0845                 5.5459

                     58                     59                     60
                      A                      A                      A
 Frequencies --   1180.3747              1252.6635              1269.8027
 Red. masses --      1.4771                 7.3773                 7.9612
 Frc consts  --      1.2126                 6.8205                 7.5631
 IR Inten    --      2.5566                16.4848                 9.5702

                     61                     62                     63
                      A                      A                      A
 Frequencies --   1350.5350              1394.9487              1421.2637
 Red. masses --      8.1542                 9.1989                 8.1731
 Frc consts  --      8.7628                10.5464                 9.7271
 IR Inten    --      1.8050                 1.0100                 7.5948

                     64                     65                     66
                      A                      A                      A
 Frequencies --   1454.5466              1611.8015              1678.2363
 Red. masses --      9.8262                 9.0278                10.8525
 Frc consts  --     12.2487                13.8183                18.0089
 IR Inten    --      2.5588                 2.2631                47.3717

                     67                     68                     69
                      A                      A                      A
 Frequencies --   1720.7402              1763.4188              1825.2913
 Red. masses --     11.1067                10.0502                 9.2548
 Frc consts  --     19.3761                18.4134                18.1670
 IR Inten    --     13.3885                21.3651                 1.5966

                     70                     71                     72
                      A                      A                      A
 Frequencies --   2019.1271              4103.2988              4236.7117
 Red. masses --     10.0535                 1.0867                 1.0330
 Frc consts  --     24.1487                10.7802                10.9242
 IR Inten    --      0.5936                30.9842                 7.5264

                     73                     74                     75
                      A                      A                      A
 Frequencies --   4423.5875              4433.9572              4729.2739
 Red. masses --      1.1067                 1.1063                 1.0853
 Frc consts  --     12.7595                12.8146                14.3015
 IR Inten    --      4.7091                 1.6123                12.6252

                     76                     77                     78
                      A                      A                      A
 Frequencies --   4748.8100              4758.7401              4763.0057
 Red. masses --      1.0876                 1.0915                 1.0893
 Frc consts  --     14.4506                14.5639                14.5594
 IR Inten    --     17.6220                 0.5217                 1.3934

                     79                     80                     81
                      A                      A                      A
 Frequencies --   4772.4040              4773.8083              4778.1980
 Red. masses --      1.0893                 1.0919                 1.0907
 Frc consts  --     14.6168                14.6614                14.6720
 IR Inten    --      1.9528                 0.0910                 0.0462

                     82                     83                     84
                      A                      A                      A
 Frequencies --   4779.8461              4785.6931              4804.1883
 Red. masses --      1.0909                 1.0893                 1.0932
 Frc consts  --     14.6848                14.6993                14.8657
 IR Inten    --      1.0848                 0.6420                 0.4409

 - Thermochemistry -
 -------------------
 Temperature   298.150 Kelvin.  Pressure   1.00000 Atm.
 Atom     1 has atomic number  7 and mass  14.00307

 Molecular mass:   210.11570 amu.
 Principal axes and moments of inertia in atomic units:
                           1         2         3
     Eigenvalues --  1635.224177160.491147734.63100
           X            0.99997  -0.00667  -0.00300
           Y            0.00669   0.99997   0.00405
           Z            0.00297  -0.00407   0.99999
 This molecule is an asymmetric top.
 Rotational symmetry number  1.
 Warning -- assumption of classical behavior for rotation
           may cause significant error
 Rotational temperatures (Kelvin)      0.05297     0.01210     0.01120
 Rotational constants (GHZ):           1.10367     0.25204     0.23333
   24 imaginary frequencies ignored.
 Zero-point vibrational energy     642610.3 (Joules/Mol)
                                  153.58754 (Kcal/Mol)
 Warning -- explicit consideration of  12 degrees of freedom as
           vibrations may cause significant error
 Vibrational temperatures:    153.41   229.18   238.67   352.16   421.58
          (Kelvin)            516.16   598.36   631.08   652.17   742.24
                              796.82   809.22   926.19   931.60   974.47
                             1037.09  1061.97  1087.48  1098.66  1106.24
                             1140.68  1149.98  1199.86  1245.97  1292.17
                             1342.85  1399.57  1428.94  1500.35  1528.99
                             1589.79  1658.86  1676.16  1698.30  1802.30
                             1826.96  1943.12  2007.02  2044.88  2092.77
                             2319.02  2414.61  2475.76  2537.17  2626.19
                             2905.07  5903.73  6095.68  6364.56  6379.48
                             6804.37  6832.48  6846.77  6852.90  6866.42
                             6868.45  6874.76  6877.13  6885.54  6912.16

 Zero-point correction=                           0.244757 (Hartree/Particle)
 Thermal correction to Energy=                    0.253787
 Thermal correction to Enthalpy=                  0.254731
 Thermal correction to Gibbs Free Energy=         0.209205
 Sum of electronic and zero-point Energies=           -649.671091
 Sum of electronic and thermal Energies=              -649.662061
 Sum of electronic and thermal Enthalpies=            -649.661117
 Sum of electronic and thermal Free Energies=         -649.706643

                     E (Thermal)             CV                S
                      KCal/Mol        Cal/Mol-Kelvin    Cal/Mol-Kelvin
 Total                  159.254             37.528             95.818
 Electronic               0.000              0.000              0.000
 Translational            0.889              2.981             41.931
 Rotational               0.889              2.981             32.871
 Vibrational            157.476             31.567             21.016
 Vibration     1          0.605              1.944              3.330
 Vibration     2          0.621              1.892              2.558
 Vibration     3          0.624              1.884              2.482
 Vibration     4          0.660              1.771              1.768
 Vibration     5          0.688              1.687              1.456
 Vibration     6          0.734              1.557              1.128
 Vibration     7          0.779              1.436              0.906
 Vibration     8          0.799              1.386              0.831
 Vibration     9          0.812              1.354              0.786
 Vibration    10          0.871              1.215              0.620
 Vibration    11          0.909              1.131              0.536
 Vibration    12          0.918              1.113              0.519

 1\1\GINC-JST195\Freq\RPBE1PBE\def2SVP\C14H14N2\LAPLAZA\04-Mar-2023\0\\
 #p pop=(regular,nbo,savenbos) freq=noraman def2svp empiricaldispersion
 =gd3bj output=wfx pbe1pbe\\MABGON_Complex_17_Ligand_2_NN_Cu_oriented\\
 0,1\N,-0.56750795,1.94351445,0.\N,2.15388975,1.32700567,0.\C,-1.336978
 25,4.56766718,0.42826103\H,-1.59301917,5.4599153,0.61853433\C,-0.01308
 783,4.24029316,0.28929253\H,0.64869764,4.92169225,0.31620986\C,0.36199
 694,2.92593263,0.11256517\C,1.76553622,2.5418411,0.02971745\H,2.422473
 48,3.22649734,-0.00481795\C,3.60536837,1.11781987,-0.03104406\H,4.0496

 Normal termination of Gaussian 16 at Sat Mar  4 11:58:05 2023.
