 Gaussian 16, Revision C.01,
 Gaussian 16:  ES64L-G16RevC.01  3-Jul-2019

 ----------------------------------------------------------------------
 #p pop=(regular,nbo,savenbos) freq=noraman def2svp empiricaldispersion
 =gd3bj output=wfx pbe1pbe
 ----------------------------------------------------------------------

 ----------------------------------------
 MADXAT_Complex_8_Ligand_0_NN_Cu_oriented
 ----------------------------------------
 Symbolic Z-matrix:
 Charge =  0 Multiplicity = 1

                         Standard orientation:
 ---------------------------------------------------------------------
 Center     Atomic      Atomic             Coordinates (Angstroms)
 Number     Number       Type             X           Y           Z
 ---------------------------------------------------------------------
      1          7           0       -1.334506    1.281626    0.009866
      2          7           0        1.338551    1.271824    0.038554
      3          6           0       -0.733100    0.066387   -0.056518
      4          6           0        1.453141   -1.132205   -0.154952
      5          6           0        0.740849    0.063869   -0.048335
      6          6           0        2.683325    1.334251    0.028374
      7          6           0       -2.841394   -1.057024   -0.216834
      8          1           0       -3.348909   -1.829105   -0.319748
      9          6           0       -2.680100    1.335291    0.008601
     10          6           0        0.738516   -2.425618   -0.211358
     11          1           0        1.183934   -3.162972   -0.678918
     12          6           0        3.464640    0.173964   -0.057385
     13          1           0        4.392603    0.230320   -0.038757
     14          6           0       -1.450604   -1.128658   -0.161189
     15          6           0       -3.455713    0.175089   -0.115566
     16          1           0       -4.383996    0.234001   -0.130019
     17          6           0        2.840228   -1.057850   -0.169239
     18          1           0        3.347703   -1.832238   -0.254151
     19          6           0       -3.319131    2.680209    0.153695
     20          1           0       -3.770598    2.730253    0.999004
     21          1           0       -3.951435    2.812236   -0.555512
     22          1           0       -2.643776    3.361850    0.111338
     23          6           0        3.304552    2.695517    0.054062
     24          1           0        3.352780    3.041980   -0.839805
     25          1           0        4.188766    2.636679    0.422093
     26          1           0        2.769441    3.281298    0.595561
     27          8           0       -0.001829   -2.752841    0.990457
     28          6           0       -0.739052   -2.422519   -0.204193
     29          1           0       -1.187135   -3.159949   -0.668660
 ---------------------------------------------------------------------

 SCF Done:  E(RPBE1PBE) =  -723.886803242     A.U. after   15 cycles

 The electronic state is 1-A.
 Alpha  occ. eigenvalues --  -19.22738 -14.37913 -14.37787 -10.28874 -10.28822
 Alpha  occ. eigenvalues --  -10.27333 -10.27318 -10.27310 -10.27292 -10.24906
 Alpha  occ. eigenvalues --  -10.24871 -10.24063 -10.24028 -10.22744 -10.22696
 Alpha  occ. eigenvalues --  -10.18749 -10.18709  -1.09783  -0.96993  -0.94811
 Alpha  occ. eigenvalues --   -0.84374  -0.83517  -0.83298  -0.80115  -0.76457
 Alpha  occ. eigenvalues --   -0.74844  -0.71183  -0.68004  -0.66325  -0.64854
 Alpha  occ. eigenvalues --   -0.64053  -0.59171  -0.56730  -0.54239  -0.52137
 Alpha  occ. eigenvalues --   -0.51410  -0.50069  -0.49915  -0.46771  -0.46487
 Alpha  occ. eigenvalues --   -0.46030  -0.44948  -0.44422  -0.44001  -0.42500
 Alpha  occ. eigenvalues --   -0.42390  -0.41171  -0.40852  -0.38748  -0.38217
 Alpha  occ. eigenvalues --   -0.37976  -0.34342  -0.31290  -0.30071  -0.29178
 Alpha  occ. eigenvalues --   -0.27518  -0.26313  -0.24910  -0.24553
 Alpha virt. eigenvalues --   -0.05492  -0.02372  -0.01718   0.02505   0.09185
 Alpha virt. eigenvalues --    0.09934   0.10136   0.10411   0.11321   0.11828
 Alpha virt. eigenvalues --    0.12848   0.14735   0.16288   0.17084   0.17759

 Mulliken charges:
               1
     1  N   -0.137890
     2  N   -0.141252
     3  C    0.024407
     4  C   -0.015691
     5  C    0.019761
     6  C   -0.157781
     7  C    0.153485
     8  H   -0.113072
     9  C   -0.153004
    10  C    0.188213
    11  H   -0.028343
    12  C    0.095849
    13  H   -0.107909
    14  C   -0.015485
    15  C    0.092627
    16  H   -0.108573
    17  C    0.152458
    18  H   -0.113839
    19  C    0.301596
    20  H   -0.004371
    21  H   -0.014516
    22  H   -0.018173
    23  C    0.314900
    24  H    0.002253
    25  H   -0.033956
    26  H   -0.009917
    27  O   -0.331797
    28  C    0.190230
    29  H   -0.030211
 Sum of Mulliken charges =  -0.00000

 Dipole moment (field-independent basis, Debye):
    X=             -0.0569    Y=             -1.1761    Z=             -1.9679  Tot=              2.2933
 Quadrupole moment (field-independent basis, Debye-Ang):
   XX=            -73.8969   YY=            -92.6627   ZZ=           -100.3368
   XY=              0.0056   XZ=             -0.2668   YZ=              6.4657

  Exact polarizability:     214.931       0.011     166.605       0.352       4.951      75.574
 Approx polarizability:     315.804       0.198     267.247       0.856       6.159     122.920

 Summary of Natural Population Analysis:

                                       Natural Population
                Natural  -----------------------------------------------
    Atom  No    Charge         Core      Valence    Rydberg      Total
 -----------------------------------------------------------------------
      N    1   -0.46574      1.99924     5.45007    0.01643     7.46574
      N    2   -0.46636      1.99923     5.45041    0.01672     7.46636
      C    3    0.21500      1.99884     3.75939    0.02677     5.78500
      C    4   -0.10716      1.99893     4.09162    0.01661     6.10716
      C    5    0.21610      1.99884     3.75815    0.02691     5.78390
      C    6    0.26894      1.99911     3.70855    0.02340     5.73106
      C    7   -0.11603      1.99903     4.10161    0.01539     6.11603
      H    8    0.17505      0.00000     0.82195    0.00300     0.82495
      C    9    0.26871      1.99911     3.70832    0.02386     5.73129
      C   10    0.12318      1.99889     3.85396    0.02398     5.87682
      H   11    0.17781      0.00000     0.81837    0.00381     0.82219
      C   12   -0.20885      1.99899     4.19552    0.01433     6.20885
      H   13    0.17563      0.00000     0.82143    0.00295     0.82437
      C   14   -0.10590      1.99894     4.09042    0.01654     6.10590
      C   15   -0.20796      1.99899     4.19459    0.01439     6.20796
      H   16    0.17541      0.00000     0.82158    0.00301     0.82459
      C   17   -0.11507      1.99903     4.10059    0.01545     6.11507
      H   18    0.17474      0.00000     0.82226    0.00300     0.82526
      C   19   -0.57054      1.99911     4.56276    0.00867     6.57054
      H   20    0.20081      0.00000     0.79673    0.00246     0.79919
      H   21    0.19619      0.00000     0.80137    0.00245     0.80381
      H   22    0.20969      0.00000     0.78674    0.00357     0.79031
      C   23   -0.56782      1.99911     4.55979    0.00892     6.56782
      H   24    0.20468      0.00000     0.79276    0.00256     0.79532
      H   25    0.18980      0.00000     0.80783    0.00238     0.81020
      H   26    0.20912      0.00000     0.78764    0.00325     0.79088
      O   27   -0.55090      1.99983     6.54003    0.01103     8.55090
      C   28    0.12434      1.99889     3.85262    0.02416     5.87566
      H   29    0.17711      0.00000     0.81902    0.00387     0.82289
 =======================================================================
   * Total *   -0.00000     33.98411    83.67605    0.33985   118.00000

 ******   17 imaginary frequencies (negative Signs) ******

                      1                      2                      3
                      A                      A                      A
 Frequencies --  -1414.7484             -1409.6944             -1405.7514
 Red. masses --      1.0139                 1.0096                 1.0623
 Frc consts  --      1.1956                 1.1821                 1.2368
 IR Inten    --      1.2380                 0.4335                41.9946

                      4                      5                      6
                      A                      A                      A
 Frequencies --  -1402.6691             -1248.1308             -1243.9318
 Red. masses --      1.0716                 1.0328                 1.0349
 Frc consts  --      1.2422                 0.9480                 0.9435
 IR Inten    --     10.0970                 0.0262                 0.0934

                      7                      8                      9
                      A                      A                      A
 Frequencies --  -1032.2827             -1025.1329             -1007.6813
 Red. masses --      1.0603                 1.0806                 1.0426
 Frc consts  --      0.6657                 0.6691                 0.6238
 IR Inten    --      2.5828                11.5920                 8.3169

                     10                     11                     12
                      A                      A                      A
 Frequencies --   -998.4058              -919.9268              -916.2500
 Red. masses --      1.0469                 1.0911                 1.0905
 Frc consts  --      0.6148                 0.5440                 0.5394
 IR Inten    --      5.5840                 6.2091                 5.0278

                     13                     14                     15
                      A                      A                      A
 Frequencies --   -802.8187              -787.2503              -694.4570
 Red. masses --      1.0694                 1.0995                 1.1765
 Frc consts  --      0.4061                 0.4015                 0.3343
 IR Inten    --      8.9336                 3.3632                 3.9823

                     16                     17                     18
                      A                      A                      A
 Frequencies --   -580.6589               -52.3682               166.8937
 Red. masses --      1.1113                 3.0923                 6.2008
 Frc consts  --      0.2208                 0.0050                 0.1018
 IR Inten    --      3.6635                 3.5979                 0.0636

                     19                     20                     21
                      A                      A                      A
 Frequencies --    183.4436               271.8838               274.1138
 Red. masses --      8.9368                 3.7429                 2.8732
 Frc consts  --      0.1772                 0.1630                 0.1272
 IR Inten    --      0.4637                 0.7114                 0.8040

                     22                     23                     24
                      A                      A                      A
 Frequencies --    291.7382               320.0067               364.4530
 Red. masses --      6.1163                 9.7239                 7.4023
 Frc consts  --      0.3067                 0.5867                 0.5793
 IR Inten    --      1.5243                 0.1733                 0.1206

                     25                     26                     27
                      A                      A                      A
 Frequencies --    395.2294               404.8465               418.7816
 Red. masses --      1.1911                 4.0289                 1.2768
 Frc consts  --      0.1096                 0.3891                 0.1319
 IR Inten    --     11.9596                 4.3440                15.2908

                     28                     29                     30
                      A                      A                      A
 Frequencies --    423.9187               483.2493               534.1188
 Red. masses --      6.4889                 7.6928                 8.4587
 Frc consts  --      0.6870                 1.0585                 1.4218
 IR Inten    --      0.6750                 0.6979                 3.6546

                     31                     32                     33
                      A                      A                      A
 Frequencies --    541.8727               575.9309               588.4210
 Red. masses --      6.8977                 4.3921                 3.8790
 Frc consts  --      1.1933                 0.8583                 0.7913
 IR Inten    --      0.4897                 1.4515                 3.2340

                     34                     35                     36
                      A                      A                      A
 Frequencies --    643.7763               648.2691               673.6531
 Red. masses --      6.2084                 6.3535                 8.1804
 Frc consts  --      1.5160                 1.5732                 2.1873
 IR Inten    --      0.5519                 0.3278                 2.7927

                     37                     38                     39
                      A                      A                      A
 Frequencies --    676.2350               713.8984               730.9191
 Red. masses --      5.9153                 4.1899                 3.3137
 Frc consts  --      1.5938                 1.2581                 1.0430
 IR Inten    --      7.9987                 3.1643                 1.3248

                     40                     41                     42
                      A                      A                      A
 Frequencies --    760.0290               783.3139               795.4765
 Red. masses --      3.3379                 4.4844                 3.0244
 Frc consts  --      1.1360                 1.6212                 1.1276
 IR Inten    --     10.2859                 0.7219                 0.4750

                     43                     44                     45
                      A                      A                      A
 Frequencies --    837.6498               849.2911               854.1128
 Red. masses --      4.5051                 5.6814                 6.9319
 Frc consts  --      1.8624                 2.4145                 2.9794
 IR Inten    --     12.8855                46.2483                 8.5537

                     46                     47                     48
                      A                      A                      A
 Frequencies --    861.3013               880.1666               919.1401
 Red. masses --      7.2770                 4.4194                 9.0637
 Frc consts  --      3.1806                 2.0172                 4.5115
 IR Inten    --      0.7460                 5.4769                43.6222

                     49                     50                     51
                      A                      A                      A
 Frequencies --    953.5410               962.7374               974.5558
 Red. masses --      3.7529                 1.1326                 1.2408
 Frc consts  --      2.0105                 0.6185                 0.6943
 IR Inten    --      0.5693                 7.4070                23.8390

                     52                     53                     54
                      A                      A                      A
 Frequencies --   1023.2646              1029.5869              1040.4973
 Red. masses --      1.3028                 1.1944                 5.1246
 Frc consts  --      0.8037                 0.7460                 3.2688
 IR Inten    --      6.2970                 8.8256                 6.9332

                     55                     56                     57
                      A                      A                      A
 Frequencies --   1188.6044              1206.2293              1298.4383
 Red. masses --      8.9858                 8.7079                 9.2966
 Frc consts  --      7.4797                 7.4649                 9.2346
 IR Inten    --      7.2167                 3.7934                 3.8453

                     58                     59                     60
                      A                      A                      A
 Frequencies --   1311.7439              1321.6115              1328.5954
 Red. masses --     10.3176                 8.6160                 9.4726
 Frc consts  --     10.4599                 8.8667                 9.8515
 IR Inten    --      4.6883                 0.9479                 3.1534

                     61                     62                     63
                      A                      A                      A
 Frequencies --   1390.9044              1402.0712              1478.4062
 Red. masses --      9.8094                 8.0635                10.3187
 Frc consts  --     11.1811                 9.3392                13.2881
 IR Inten    --     52.4876                20.7245                 2.0108

                     64                     65                     66
                      A                      A                      A
 Frequencies --   1492.5014              1504.4842              1628.2640
 Red. masses --     10.2767                10.8025                11.3106
 Frc consts  --     13.4875                14.4062                17.6680
 IR Inten    --     26.3927                74.3018                82.2573

                     67                     68                     69
                      A                      A                      A
 Frequencies --   1637.9135              1649.7434              1666.3672
 Red. masses --     10.9196                10.6578                10.9466
 Frc consts  --     17.2600                17.0903                17.9089
 IR Inten    --    111.7084                22.8139                 1.9773

                     70                     71                     72
                      A                      A                      A
 Frequencies --   4385.6474              4391.6720              4472.9845
 Red. masses --      1.0879                 1.0905                 1.0327
 Frc consts  --     12.3288                12.3921                12.1740
 IR Inten    --      0.7664                12.8651                 2.2062

                     73                     74                     75
                      A                      A                      A
 Frequencies --   4474.9302              4680.3179              4681.8852
 Red. masses --      1.0328                 1.1066                 1.1068
 Frc consts  --     12.1854                14.2817                14.2945
 IR Inten    --      1.7993                 0.4703                 0.5152

                     76                     77                     78
                      A                      A                      A
 Frequencies --   4683.6148              4685.8764              5029.4355
 Red. masses --      1.1066                 1.1064                 1.0883
 Frc consts  --     14.3027                14.3131                16.2202
 IR Inten    --      2.1990                 0.2064                 0.2944

                     79                     80                     81
                      A                      A                      A
 Frequencies --   5034.2765              5044.0661              5044.4057
 Red. masses --      1.0880                 1.0908                 1.0912
 Frc consts  --     16.2460                16.3520                16.3592
 IR Inten    --      0.4772                 0.0054                 0.0178

 - Thermochemistry -
 -------------------
 Temperature   298.150 Kelvin.  Pressure   1.00000 Atm.
 Atom     1 has atomic number  7 and mass  14.00307

 Molecular mass:   224.09496 amu.
 Principal axes and moments of inertia in atomic units:
                           1         2         3
     Eigenvalues --  2448.553634300.149976588.41771
           X            1.00000   0.00005  -0.00056
           Y           -0.00004   0.99994   0.01124
           Z            0.00056  -0.01124   0.99994
 This molecule is an asymmetric top.
 Rotational symmetry number  1.
 Warning -- assumption of classical behavior for rotation
           may cause significant error
 Rotational temperatures (Kelvin)      0.03537     0.02014     0.01315
 Rotational constants (GHZ):           0.73706     0.41969     0.27393
   17 imaginary frequencies ignored.
 Zero-point vibrational energy     609888.0 (Joules/Mol)
                                  145.76673 (Kcal/Mol)
 Warning -- explicit consideration of  16 degrees of freedom as
           vibrations may cause significant error
 Vibrational temperatures:    240.12   263.93   391.18   394.39   419.75
          (Kelvin)            460.42   524.37   568.65   582.48   602.53
                              609.92   695.29   768.48   779.63   828.64
                              846.61   926.25   932.71   969.24   972.95
                             1027.14  1051.63  1093.51  1127.01  1144.51
                             1205.19  1221.94  1228.88  1239.22  1266.36
                             1322.44  1371.93  1385.16  1402.17  1472.25
                             1481.35  1497.04  1710.14  1735.49  1868.16
                             1887.31  1901.50  1911.55  2001.20  2017.27
                             2127.10  2147.38  2164.62  2342.71  2356.59
                             2373.61  2397.53  6309.97  6318.64  6435.63
                             6438.43  6733.93  6736.19  6738.68  6741.93
                             7236.24  7243.20  7257.29  7257.77

 Zero-point correction=                           0.232294 (Hartree/Particle)
 Thermal correction to Energy=                    0.242271
 Thermal correction to Enthalpy=                  0.243215
 Thermal correction to Gibbs Free Energy=         0.196885
 Sum of electronic and zero-point Energies=           -723.654509
 Sum of electronic and thermal Energies=              -723.644532
 Sum of electronic and thermal Enthalpies=            -723.643588
 Sum of electronic and thermal Free Energies=         -723.689918

                     E (Thermal)             CV                S
                      KCal/Mol        Cal/Mol-Kelvin    Cal/Mol-Kelvin
 Total                  152.027             44.005             97.510
 Electronic               0.000              0.000              0.000
 Translational            0.889              2.981             42.123
 Rotational               0.889              2.981             32.606
 Vibrational            150.250             38.044             22.781
 Vibration     1          0.624              1.883              2.470
 Vibration     2          0.631              1.862              2.293
 Vibration     3          0.675              1.725              1.584
 Vibration     4          0.676              1.721              1.570
 Vibration     5          0.687              1.689              1.464
 Vibration     6          0.706              1.635              1.310
 Vibration     7          0.738              1.545              1.103
 Vibration     8          0.762              1.480              0.980
 Vibration     9          0.770              1.460              0.945
 Vibration    10          0.782              1.429              0.896
 Vibration    11          0.786              1.418              0.879
 Vibration    12          0.839              1.287              0.701
 Vibration    13          0.889              1.175              0.578
 Vibration    14          0.897              1.157              0.561
 Vibration    15          0.932              1.083              0.493
 Vibration    16          0.946              1.056              0.470

 Normal termination of Gaussian 16 at Sat Mar  4 11:59:11 2023.
