 Gaussian 16, Revision C.01,
 Gaussian 16:  ES64L-G16RevC.01  3-Jul-2019

 ----------------------------------------------------------------------
 #p pop=(regular,nbo,savenbos) freq=noraman def2svp empiricaldispersion
 =gd3bj output=wfx pbe1pbe
 ----------------------------------------------------------------------

 ----------------------------------------
 MAJCUW_Complex_2_Ligand_1_ON_Cu_oriented
 ----------------------------------------
 Symbolic Z-matrix:
 Charge = -1 Multiplicity = 1

                         Standard orientation:
 ---------------------------------------------------------------------
 Center     Atomic      Atomic             Coordinates (Angstroms)
 Number     Number       Type             X           Y           Z
 ---------------------------------------------------------------------
      1         17           0       -2.871300   -2.590772    0.122748
      2         17           0       -3.121990    2.757528    0.127792
      3          8           0       -0.031667   -2.183065   -0.268671
      4          7           0        2.259794   -0.589571   -0.400882
      5          6           0       -0.036981    0.218445   -0.244179
      6          6           0       -0.667841   -1.061454   -0.180630
      7          6           0       -2.056654   -1.052556    0.010273
      8          6           0       -2.801855    0.075375    0.108919
      9          6           0       -2.163221    1.315461    0.009590
     10          6           0       -0.812562    1.382044   -0.177296
     11          6           0        1.388669    0.350989   -0.329057
     12          6           0        3.714064   -0.196311   -0.428974
     13          6           0        4.101839    0.642742    0.760911
     14          6           0        4.018820    0.488449   -1.751666
     15          6           0        3.964498   -0.056820    2.067782
     16          1           0       -3.741077    0.023567    0.241610
     17          1           0       -0.394099    2.232059   -0.264531
     18          1           0        1.729414    1.239045   -0.334909
     19          1           0        4.228467   -0.996682   -0.394645
     20          1           0        5.011320    0.904847    0.654085
     21          1           0        3.550521    1.416084    0.769833
     22          1           0        4.944780    0.698452   -1.797854
     23          1           0        3.785569   -0.083317   -2.471404
     24          1           0        3.512813    1.295189   -1.814093
     25          1           0        4.214700    0.533979    2.768909
     26          1           0        3.059580   -0.324093    2.187305
     27          1           0        4.526060   -0.820647    2.078036
 ---------------------------------------------------------------------

 SCF Done:  E(RPBE1PBE) =  -1474.95973686     A.U. after   19 cycles

 The electronic state is 1-A.
 Alpha  occ. eigenvalues -- -101.54934-101.52758 -18.96655 -14.21748 -10.13253
 Alpha  occ. eigenvalues --  -10.12231 -10.11753 -10.11625 -10.10772 -10.09068
 Alpha  occ. eigenvalues --  -10.08767 -10.08458 -10.07657 -10.07305 -10.06963
 Alpha  occ. eigenvalues --   -9.40139  -9.37921  -7.14233  -7.13316  -7.13294
 Alpha  occ. eigenvalues --   -7.12034  -7.11106  -7.11053  -0.81804  -0.79159
 Alpha  occ. eigenvalues --   -0.77371  -0.73585  -0.71729  -0.69113  -0.66900
 Alpha  occ. eigenvalues --   -0.62898  -0.58203  -0.57012  -0.54046  -0.49846
 Alpha  occ. eigenvalues --   -0.46930  -0.42811  -0.41187  -0.37861  -0.37368
 Alpha  occ. eigenvalues --   -0.36549  -0.35379  -0.34698  -0.32777  -0.31299
 Alpha  occ. eigenvalues --   -0.30739  -0.29553  -0.28672  -0.27879  -0.26583
 Alpha  occ. eigenvalues --   -0.25394  -0.25169  -0.24392  -0.23853  -0.21307
 Alpha  occ. eigenvalues --   -0.21105  -0.19541  -0.16886  -0.16611  -0.15666
 Alpha  occ. eigenvalues --   -0.11046  -0.10426  -0.04990  -0.03689
 Alpha virt. eigenvalues --    0.10713   0.17256   0.17976   0.18612   0.19577
 Alpha virt. eigenvalues --    0.20664   0.21727   0.23945   0.24717   0.25875
 Alpha virt. eigenvalues --    0.27465   0.27650   0.28123   0.29272   0.29438

 Mulliken charges:
               1
     1  Cl  -0.155987
     2  Cl  -0.194658
     3  O   -0.374804
     4  N   -0.225902
     5  C   -0.117675
     6  C    0.172080
     7  C   -0.046892
     8  C    0.109928
     9  C   -0.000677
    10  C    0.085576
    11  C    0.110614
    12  C    0.004606
    13  C    0.052179
    14  C    0.242808
    15  C    0.216495
    16  H   -0.145317
    17  H   -0.144687
    18  H   -0.128189
    19  H   -0.073830
    20  H   -0.065869
    21  H   -0.056380
    22  H   -0.064167
    23  H   -0.028893
    24  H   -0.050601
    25  H   -0.053901
    26  H   -0.015082
    27  H   -0.050775
 Sum of Mulliken charges =  -1.00000

 Dipole moment (field-independent basis, Debye):
    X=              3.3066    Y=              5.0334    Z=              0.6781  Tot=              6.0604
 Quadrupole moment (field-independent basis, Debye-Ang):
   XX=           -122.5634   YY=           -127.1559   ZZ=           -106.1637
   XY=              4.6984   XZ=              0.5880   YZ=             -1.7474

  Exact polarizability:     213.824      -3.382     153.900      -9.846      -0.766      88.490
 Approx polarizability:     286.875     -23.938     262.679     -18.053       1.970     124.206

 Summary of Natural Population Analysis:

                                       Natural Population
                Natural  -----------------------------------------------
    Atom  No    Charge         Core      Valence    Rydberg      Total
 -----------------------------------------------------------------------
     Cl    1   -0.06119      9.99960     7.04435    0.01724    17.06119
     Cl    2   -0.08503      9.99959     7.06869    0.01675    17.08503
      O    3   -0.68949      1.99979     6.68144    0.00826     8.68949
      N    4   -0.49181      1.99937     5.47400    0.01843     7.49181
      C    5   -0.18345      1.99891     4.16531    0.01923     6.18345
      C    6    0.37447      1.99866     3.58416    0.04270     5.62553
      C    7   -0.07350      1.99858     4.04978    0.02514     6.07350
      C    8   -0.23225      1.99879     4.21569    0.01777     6.23225
      C    9   -0.09516      1.99868     4.07401    0.02247     6.09516
      C   10   -0.20079      1.99889     4.18489    0.01701     6.20079
      C   11    0.11150      1.99905     3.86028    0.02917     5.88850
      C   12    0.02400      1.99897     3.95757    0.01946     5.97600
      C   13   -0.35801      1.99901     4.34677    0.01223     6.35801
      C   14   -0.54723      1.99913     4.53763    0.01047     6.54723
      C   15   -0.52842      1.99917     4.52058    0.00867     6.52842
      H   16    0.19296      0.00000     0.80232    0.00472     0.80704
      H   17    0.17923      0.00000     0.81594    0.00483     0.82077
      H   18    0.10825      0.00000     0.88355    0.00820     0.89175
      H   19    0.15241      0.00000     0.84314    0.00445     0.84759
      H   20    0.16536      0.00000     0.82990    0.00474     0.83464
      H   21    0.17021      0.00000     0.82583    0.00396     0.82979
      H   22    0.16910      0.00000     0.82746    0.00344     0.83090
      H   23    0.18730      0.00000     0.80865    0.00405     0.81270
      H   24    0.17784      0.00000     0.81951    0.00265     0.82216
      H   25    0.17005      0.00000     0.82716    0.00278     0.82995
      H   26    0.19393      0.00000     0.80236    0.00371     0.80607
      H   27    0.16971      0.00000     0.82725    0.00304     0.83029
 =======================================================================
   * Total *   -1.00000     45.98620    81.67824    0.33556   128.00000

 ******   19 imaginary frequencies (negative Signs) ******

                      1                      2                      3
                      A                      A                      A
 Frequencies --  -1469.5102             -1458.9773             -1258.4221
 Red. masses --      1.0090                 1.0093                 1.0341
 Frc consts  --      1.2838                 1.2658                 0.9648
 IR Inten    --      0.4346                 0.0135                11.6689

                      4                      5                      6
                      A                      A                      A
 Frequencies --  -1213.1215             -1151.4398             -1136.3680
 Red. masses --      1.0502                 1.0506                 1.0428
 Frc consts  --      0.9106                 0.8207                 0.7934
 IR Inten    --     10.8447                18.2334                10.1173

                      7                      8                      9
                      A                      A                      A
 Frequencies --  -1118.6261             -1110.2795             -1091.9217
 Red. masses --      1.0501                 1.0514                 1.0502
 Frc consts  --      0.7742                 0.7636                 0.7377
 IR Inten    --     22.6392                 7.1442                 2.0420

                     10                     11                     12
                      A                      A                      A
 Frequencies --  -1089.4946              -726.0315              -646.0207
 Red. masses --      1.0401                 1.1749                 1.2767
 Frc consts  --      0.7274                 0.3649                 0.3139
 IR Inten    --      7.9100                 4.6100                 0.2083

                     13                     14                     15
                      A                      A                      A
 Frequencies --   -640.7072              -574.9822              -567.5433
 Red. masses --      1.1120                 1.2949                 1.2006
 Frc consts  --      0.2690                 0.2522                 0.2279
 IR Inten    --      1.6359                14.9181                 0.8475

                     16                     17                     18
                      A                      A                      A
 Frequencies --   -466.8048              -347.3360              -273.8334
 Red. masses --      1.6164                 1.5209                 1.1898
 Frc consts  --      0.2075                 0.1081                 0.0526
 IR Inten    --      5.7131                 1.5995                16.5153

                     19                     20                     21
                      A                      A                      A
 Frequencies --    -91.3583                76.1890               128.6940
 Red. masses --      1.1472                13.4362                11.0393
 Frc consts  --      0.0056                 0.0460                 0.1077
 IR Inten    --     15.7479                 1.8866                 0.3365

                     22                     23                     24
                      A                      A                      A
 Frequencies --    176.3704               195.7703               242.6010
 Red. masses --     13.6240                 9.0707                 5.2416
 Frc consts  --      0.2497                 0.2048                 0.1818
 IR Inten    --      0.1841                 0.1399                 1.3734

                     25                     26                     27
                      A                      A                      A
 Frequencies --    262.6706               280.6490               343.2162
 Red. masses --      7.7421                 6.0864                10.3024
 Frc consts  --      0.3147                 0.2824                 0.7150
 IR Inten    --      0.3285                 0.2959                 1.8607

                     28                     29                     30
                      A                      A                      A
 Frequencies --    357.8121               443.1315               456.4882
 Red. masses --     11.9756                 8.4699                 6.1987
 Frc consts  --      0.9033                 0.9799                 0.7610
 IR Inten    --      1.9300                 4.8422                 1.0947

                     31                     32                     33
                      A                      A                      A
 Frequencies --    478.4443               508.6436               522.7482
 Red. masses --      9.5595                 5.0397                 4.3186
 Frc consts  --      1.2893                 0.7682                 0.6953
 IR Inten    --      6.9237                 0.9359                 2.3324

                     34                     35                     36
                      A                      A                      A
 Frequencies --    581.7401               591.5258               610.5889
 Red. masses --      4.1233                 3.1887                 8.5716
 Frc consts  --      0.8222                 0.6574                 1.8828
 IR Inten    --      6.8032                 2.8311                 0.8046

                     37                     38                     39
                      A                      A                      A
 Frequencies --    636.5613               641.3353               695.2968
 Red. masses --      6.6396                 5.2619                 3.0922
 Frc consts  --      1.5852                 1.2752                 0.8808
 IR Inten    --     16.2556                23.3617                12.6159

                     40                     41                     42
                      A                      A                      A
 Frequencies --    728.8182               743.4882               796.1091
 Red. masses --      5.3089                 2.5775                 2.5166
 Frc consts  --      1.6615                 0.8394                 0.9397
 IR Inten    --     19.3235                 6.9977                54.8276

                     43                     44                     45
                      A                      A                      A
 Frequencies --    800.1767               842.8254               853.5081
 Red. masses --      1.5649                11.6244                 2.3440
 Frc consts  --      0.5903                 4.8651                 1.0061
 IR Inten    --      5.8668                 8.3247                43.7229

                     46                     47                     48
                      A                      A                      A
 Frequencies --    885.0779               903.5202               934.6389
 Red. masses --      1.4016                 1.2957                 4.4738
 Frc consts  --      0.6469                 0.6232                 2.3026
 IR Inten    --     27.0385                17.1813                12.7897

                     49                     50                     51
                      A                      A                      A
 Frequencies --    971.0509               997.7271              1028.2345
 Red. masses --      1.2998                 1.2687                 4.2407
 Frc consts  --      0.7221                 0.7441                 2.6417
 IR Inten    --      6.8006                 3.8830                 2.9635

                     52                     53                     54
                      A                      A                      A
 Frequencies --   1070.3700              1126.9346              1186.0592
 Red. masses --      3.6792                 4.6647                 3.4169
 Frc consts  --      2.4836                 3.4904                 2.8320
 IR Inten    --     78.8022                 5.6376                 1.9258

                     55                     56                     57
                      A                      A                      A
 Frequencies --   1263.6065              1291.0608              1343.9006
 Red. masses --      6.2588                 9.9593                 9.6666
 Frc consts  --      5.8880                 9.7808                10.2863
 IR Inten    --      3.2176               119.5699                10.3135

                     58                     59                     60
                      A                      A                      A
 Frequencies --   1482.7243              1482.9114              1528.6727
 Red. masses --      9.5831                12.0544                10.7395
 Frc consts  --     12.4130                15.6181                14.7864
 IR Inten    --      2.4602               252.6252               171.2358

                     61                     62                     63
                      A                      A                      A
 Frequencies --   1619.7408              1693.3247              1712.2827
 Red. masses --     10.9667                10.8375                11.1053
 Frc consts  --     16.9519                18.3089                19.1836
 IR Inten    --    142.9793               300.9031                43.7725

                     64                     65                     66
                      A                      A                      A
 Frequencies --   4569.2457              4586.2329              4637.1429
 Red. masses --      1.0338                 1.0326                 1.0600
 Frc consts  --     12.7171                12.7966                13.4294
 IR Inten    --     19.6545                19.7771                31.3777

                     67                     68                     69
                      A                      A                      A
 Frequencies --   4702.6919              4705.7079              4742.2630
 Red. masses --      1.0864                 1.0877                 1.0892
 Frc consts  --     14.1563                14.1911                14.4320
 IR Inten    --     41.2332                35.3312                 2.5747

                     70                     71                     72
                      A                      A                      A
 Frequencies --   4765.7162              4768.4267              4783.2789
 Red. masses --      1.1049                 1.0900                 1.1080
 Frc consts  --     14.7848                14.6026                14.9363
 IR Inten    --     17.8716                 0.0888                14.1187

                     73                     74                     75
                      A                      A                      A
 Frequencies --   4791.0329              4814.4595              4816.3737
 Red. masses --      1.1066                 1.1063                 1.1067
 Frc consts  --     14.9661                15.1088                15.1257
 IR Inten    --      6.8900                 7.3189                 8.4101

 - Thermochemistry -
 -------------------
 Temperature   298.150 Kelvin.  Pressure   1.00000 Atm.
 Atom     1 has atomic number 17 and mass  34.96885

 Molecular mass:   244.02959 amu.
 Principal axes and moments of inertia in atomic units:
                           1         2         3
     Eigenvalues --  2898.862667107.262159036.80072
           X            0.99992   0.01172   0.00404
           Y           -0.01169   0.99991  -0.00588
           Z           -0.00411   0.00583   0.99997
 This molecule is an asymmetric top.
 Rotational symmetry number  1.
 Warning -- assumption of classical behavior for rotation
           may cause significant error
 Rotational temperatures (Kelvin)      0.02988     0.01219     0.00958
 Rotational constants (GHZ):           0.62257     0.25393     0.19971
   19 imaginary frequencies ignored.
 Zero-point vibrational energy     551477.3 (Joules/Mol)
                                  131.80625 (Kcal/Mol)
 Warning -- explicit consideration of  17 degrees of freedom as
           vibrations may cause significant error
 Vibrational temperatures:    109.62   185.16   253.76   281.67   349.05
          (Kelvin)            377.92   403.79   493.81   514.81   637.57
                              656.78   688.37   731.82   752.12   836.99
                              851.07   878.50   915.87   922.74  1000.38
                             1048.61  1069.71  1145.42  1151.28  1212.64
                             1228.01  1273.43  1299.96  1344.74  1397.13
                             1435.51  1479.40  1540.02  1621.41  1706.47
                             1818.05  1857.55  1933.57  2133.31  2133.58
                             2199.42  2330.45  2436.32  2463.59  6574.13
                             6598.57  6671.81  6766.12  6770.46  6823.06
                             6856.80  6860.70  6882.07  6893.23  6926.93
                             6929.69

 Zero-point correction=                           0.210047 (Hartree/Particle)
 Thermal correction to Energy=                    0.220598
 Thermal correction to Enthalpy=                  0.221542
 Thermal correction to Gibbs Free Energy=         0.172583
 Sum of electronic and zero-point Energies=          -1474.749690
 Sum of electronic and thermal Energies=             -1474.739139
 Sum of electronic and thermal Enthalpies=           -1474.738195
 Sum of electronic and thermal Free Energies=        -1474.787154

                     E (Thermal)             CV                S
                      KCal/Mol        Cal/Mol-Kelvin    Cal/Mol-Kelvin
 Total                  138.427             42.424            103.043
 Electronic               0.000              0.000              0.000
 Translational            0.889              2.981             42.377
 Rotational               0.889              2.981             33.587
 Vibrational            136.650             36.462             27.079
 Vibration     1          0.599              1.965              3.987
 Vibration     2          0.611              1.925              2.965
 Vibration     3          0.628              1.871              2.366
 Vibration     4          0.636              1.846              2.172
 Vibration     5          0.659              1.775              1.784
 Vibration     6          0.670              1.741              1.644
 Vibration     7          0.680              1.709              1.530
 Vibration     8          0.722              1.589              1.197
 Vibration     9          0.733              1.559              1.132
 Vibration    10          0.803              1.376              0.817
 Vibration    11          0.815              1.347              0.776
 Vibration    12          0.835              1.298              0.714
 Vibration    13          0.864              1.231              0.637
 Vibration    14          0.878              1.200              0.604
 Vibration    15          0.938              1.071              0.482
 Vibration    16          0.949              1.050              0.464
 Vibration    17          0.970              1.009              0.432

 Normal termination of Gaussian 16 at Mon Mar  6 10:45:49 2023.
