 Gaussian 16, Revision C.01,
 Gaussian 16:  ES64L-G16RevC.01  3-Jul-2019

 ----------------------------------------------------------------------
 #p pop=(regular,nbo,savenbos) freq=noraman def2svp empiricaldispersion
 =gd3bj output=wfx pbe1pbe
 ----------------------------------------------------------------------

 ----------------------------------------
 MAJNER_Complex_0_Ligand_0_ON_Cu_oriented
 ----------------------------------------
 Symbolic Z-matrix:
 Charge = -1 Multiplicity = 1

                         Standard orientation:
 ---------------------------------------------------------------------
 Center     Atomic      Atomic             Coordinates (Angstroms)
 Number     Number       Type             X           Y           Z
 ---------------------------------------------------------------------
      1          8           0       -0.874781    2.057740   -0.426883
      2          7           0        1.166785    0.174808   -0.895942
      3          6           0        2.492155   -0.333779   -1.340791
      4          6           0        3.544720   -0.084852   -0.266986
      5          6           0        4.877994   -0.085534   -0.660012
      6          1           0        2.743831    0.191418   -2.091665
      7          6           0        5.544162    0.436135    1.593689
      8          6           0        4.210888    0.436817    1.986715
      9          6           0        3.211079    0.176984    1.057817
     10          1           0        3.982463    0.615734    2.892505
     11          1           0        2.300572    0.177795    1.325943
     12          6           0        5.877261    0.175282    0.270367
     13          1           0        6.788310    0.173487    0.000760
     14         17           0       -4.364314   -2.498155    0.737376
     15         17           0       -3.646226    2.765583   -0.159260
     16          6           0       -1.632332    0.971999   -0.246928
     17          6           0       -2.987379    1.188654   -0.029654
     18          6           0       -3.826366    0.116410    0.250344
     19          6           0       -3.310307   -1.172489    0.313068
     20          6           0       -1.954716   -1.390125    0.094314
     21          6           0       -1.116638   -0.317238   -0.185602
     22          6           0        0.246084   -0.653020   -0.571609
     23          1           0       -4.752873    0.265026    0.400241
     24          1           0       -1.602180   -2.270201    0.137356
     25          1           0        0.473362   -1.574882   -0.584481
     26          6           0        2.518741   -1.782986   -1.798604
     27          1           0        2.276112   -2.348530   -1.075038
     28          1           0        1.902774   -1.899884   -2.512508
     29          1           0        3.392840   -2.005556   -2.095075
     30          1           0        5.105511   -0.263808   -1.565721
     31          1           0        6.227140    0.613998    2.229602
 ---------------------------------------------------------------------

 SCF Done:  E(RPBE1PBE) =  -1627.10539686     A.U. after   19 cycles

 The electronic state is 1-A.
 Alpha  occ. eigenvalues -- -101.55297-101.53474 -18.96058 -14.23129 -10.14099
 Alpha  occ. eigenvalues --  -10.13942 -10.13610 -10.13391 -10.13075 -10.12961
 Alpha  occ. eigenvalues --  -10.12891 -10.12723 -10.12045 -10.12028 -10.11520
 Alpha  occ. eigenvalues --  -10.09574 -10.09403 -10.08484 -10.08307  -9.40478
 Alpha  occ. eigenvalues --   -9.38670  -7.14578  -7.13654  -7.13633  -7.12788
 Alpha  occ. eigenvalues --   -7.11854  -7.11789  -0.81457  -0.80192  -0.78116
 Alpha  occ. eigenvalues --   -0.77030  -0.73891  -0.71248  -0.69371  -0.68237
 Alpha  occ. eigenvalues --   -0.66527  -0.63457  -0.58776  -0.57058  -0.55070
 Alpha  occ. eigenvalues --   -0.53230  -0.50537  -0.47801  -0.46473  -0.43615
 Alpha  occ. eigenvalues --   -0.41203  -0.40764  -0.37859  -0.37618  -0.36638
 Alpha  occ. eigenvalues --   -0.36113  -0.35685  -0.33984  -0.32801  -0.31985
 Alpha  occ. eigenvalues --   -0.31711  -0.30199  -0.29020  -0.28237  -0.28002
 Alpha  occ. eigenvalues --   -0.26893  -0.26285  -0.25296  -0.24162  -0.22132
 Alpha  occ. eigenvalues --   -0.20536  -0.19780  -0.17552  -0.17528  -0.17163
 Alpha  occ. eigenvalues --   -0.16454  -0.15126  -0.11668  -0.11338  -0.04682
 Alpha  occ. eigenvalues --   -0.03716
 Alpha virt. eigenvalues --    0.08562   0.09296   0.10383   0.16280   0.17585
 Alpha virt. eigenvalues --    0.18123   0.19086   0.19240   0.21135   0.22346
 Alpha virt. eigenvalues --    0.23453   0.24050   0.24334   0.25700   0.26394

 Mulliken charges:
               1
     1  O   -0.437555
     2  N   -0.201826
     3  C    0.153171
     4  C   -0.060982
     5  C    0.054971
     6  H   -0.056057
     7  C    0.065656
     8  C    0.076288
     9  C    0.093056
    10  H   -0.087209
    11  H   -0.074328
    12  C    0.075421
    13  H   -0.097141
    14  Cl  -0.192125
    15  Cl  -0.133905
    16  C    0.151276
    17  C   -0.029024
    18  C    0.093670
    19  C    0.008184
    20  C    0.074216
    21  C   -0.065455
    22  C    0.111174
    23  H   -0.142856
    24  H   -0.142754
    25  H   -0.139174
    26  C    0.217488
    27  H   -0.026345
    28  H   -0.024410
    29  H   -0.066285
    30  H   -0.102700
    31  H   -0.094439
 Sum of Mulliken charges =  -1.00000

 Dipole moment (field-independent basis, Debye):
    X=              6.3778    Y=             -5.0371    Z=              0.4448  Tot=              8.1392
 Quadrupole moment (field-independent basis, Debye-Ang):
   XX=           -161.0572   YY=           -147.4962   ZZ=           -123.7240
   XY=             -1.0633   XZ=             -0.9673   YZ=              5.6746

  Exact polarizability:     280.091       6.249     168.875     -13.128       3.310     130.499
 Approx polarizability:     370.256      26.343     288.363     -32.150      -2.455     212.380

 Summary of Natural Population Analysis:

                                       Natural Population
                Natural  -----------------------------------------------
    Atom  No    Charge         Core      Valence    Rydberg      Total
 -----------------------------------------------------------------------
      O    1   -0.71266      1.99982     6.70564    0.00719     8.71266
      N    2   -0.48352      1.99934     5.46523    0.01895     7.48352
      C    3    0.00697      1.99886     3.97267    0.02150     5.99303
      C    4   -0.01236      1.99899     3.99467    0.01871     6.01236
      C    5   -0.19705      1.99899     4.18341    0.01464     6.19705
      H    6    0.17321      0.00000     0.82106    0.00573     0.82679
      C    7   -0.20403      1.99912     4.19087    0.01404     6.20403
      C    8   -0.17140      1.99911     4.15818    0.01412     6.17140
      C    9   -0.16524      1.99897     4.15081    0.01545     6.16524
      H   10    0.17368      0.00000     0.82331    0.00302     0.82632
      H   11    0.19919      0.00000     0.79684    0.00398     0.80081
      C   12   -0.18291      1.99912     4.16964    0.01416     6.18291
      H   13    0.16904      0.00000     0.82783    0.00313     0.83096
     Cl   14   -0.08574      9.99960     7.06988    0.01626    17.08574
     Cl   15   -0.02960      9.99954     7.01129    0.01876    17.02960
      C   16    0.34437      1.99854     3.61658    0.04050     5.65563
      C   17   -0.08002      1.99858     4.05581    0.02563     6.08002
      C   18   -0.22661      1.99882     4.21011    0.01768     6.22661
      C   19   -0.09579      1.99870     4.07492    0.02217     6.09579
      C   20   -0.18914      1.99891     4.17350    0.01673     6.18914
      C   21   -0.17574      1.99884     4.15771    0.01920     6.17574
      C   22    0.13142      1.99903     3.84180    0.02775     5.86858
      H   23    0.18935      0.00000     0.80595    0.00470     0.81065
      H   24    0.17728      0.00000     0.81818    0.00454     0.82272
      H   25    0.11241      0.00000     0.87971    0.00787     0.88759
      C   26   -0.55816      1.99914     4.54930    0.00972     6.55816
      H   27    0.18114      0.00000     0.81581    0.00306     0.81886
      H   28    0.18754      0.00000     0.80939    0.00307     0.81246
      H   29    0.18166      0.00000     0.81545    0.00289     0.81834
      H   30    0.17375      0.00000     0.82304    0.00320     0.82625
      H   31    0.16896      0.00000     0.82792    0.00312     0.83104
 =======================================================================
   * Total *   -1.00000     53.98203    97.61653    0.40144   152.00000

 ******   22 imaginary frequencies (negative Signs) ******

                      1                      2                      3
                      A                      A                      A
 Frequencies --  -1458.7190             -1278.2177             -1210.9112
 Red. masses --      1.0086                 1.0830                 1.0472
 Frc consts  --      1.2645                 1.0426                 0.9047
 IR Inten    --      0.0393                72.5039                 8.9854

                      4                      5                      6
                      A                      A                      A
 Frequencies --  -1172.2251             -1165.6825             -1151.0478
 Red. masses --      1.0384                 1.0535                 1.0415
 Frc consts  --      0.8407                 0.8434                 0.8130
 IR Inten    --      1.9366                16.5046                 9.7974

                      7                      8                      9
                      A                      A                      A
 Frequencies --  -1127.2831             -1124.3703             -1110.3800
 Red. masses --      1.0516                 1.0287                 1.0408
 Frc consts  --      0.7873                 0.7662                 0.7561
 IR Inten    --      4.8377                 1.0213                28.0335

                     10                     11                     12
                      A                      A                      A
 Frequencies --  -1046.2716              -963.6645              -679.6304
 Red. masses --      1.0129                 1.0324                 1.1523
 Frc consts  --      0.6533                 0.5649                 0.3136
 IR Inten    --      0.1826                 0.2363                 0.9274

                     13                     14                     15
                      A                      A                      A
 Frequencies --   -676.7173              -651.8823              -644.6636
 Red. masses --      1.1921                 1.1015                 1.2334
 Frc consts  --      0.3216                 0.2758                 0.3020
 IR Inten    --      0.3792                 0.4391                 0.4913

                     16                     17                     18
                      A                      A                      A
 Frequencies --   -613.9353              -595.3705              -576.7796
 Red. masses --      1.3217                 1.1490                 1.2075
 Frc consts  --      0.2935                 0.2400                 0.2367
 IR Inten    --     31.2220                 4.1939                 8.9005

                     19                     20                     21
                      A                      A                      A
 Frequencies --   -482.3163              -376.7895              -338.9055
 Red. masses --      1.1790                 1.4450                 1.0655
 Frc consts  --      0.1616                 0.1209                 0.0721
 IR Inten    --     10.5585                 7.2097                25.6696

                     22                     23                     24
                      A                      A                      A
 Frequencies --   -287.5227                66.4990                90.2974
 Red. masses --      1.2344                14.8361                11.6848
 Frc consts  --      0.0601                 0.0387                 0.0561
 IR Inten    --     17.4742                 2.5122                 0.7747

                     25                     26                     27
                      A                      A                      A
 Frequencies --    128.0315               149.9507               188.8596
 Red. masses --     11.5127                11.7189                 9.4093
 Frc consts  --      0.1112                 0.1553                 0.1977
 IR Inten    --      0.6028                 0.0473                 0.2676

                     28                     29                     30
                      A                      A                      A
 Frequencies --    209.9633               213.9762               237.3150
 Red. masses --     11.2451                10.3153                 8.2798
 Frc consts  --      0.2921                 0.2783                 0.2747
 IR Inten    --      0.1815                 0.0744                 1.0784

                     31                     32                     33
                      A                      A                      A
 Frequencies --    313.6551               343.4765               362.7614
 Red. masses --      7.1828                10.0303                 5.9958
 Frc consts  --      0.4163                 0.6972                 0.4649
 IR Inten    --      0.6086                 3.3588                 2.5646

                     34                     35                     36
                      A                      A                      A
 Frequencies --    397.8786               421.0880               428.5308
 Red. masses --      6.5888                 6.6194                 6.5626
 Frc consts  --      0.6145                 0.6915                 0.7101
 IR Inten    --      0.6941                 2.4041                 4.9512

                     37                     38                     39
                      A                      A                      A
 Frequencies --    453.2606               491.1621               500.2385
 Red. masses --      6.7988                 9.0376                 8.4033
 Frc consts  --      0.8230                 1.2846                 1.2390
 IR Inten    --      3.3021                 2.2986                 2.8154

                     40                     41                     42
                      A                      A                      A
 Frequencies --    554.5589               557.0519               620.9516
 Red. masses --      9.6556                 4.9961                10.3102
 Frc consts  --      1.7495                 0.9134                 2.3423
 IR Inten    --      0.4564                 1.5048                 2.7848

                     43                     44                     45
                      A                      A                      A
 Frequencies --    627.7057               646.7423               662.3591
 Red. masses --      4.1794                11.2682                 6.9588
 Frc consts  --      0.9702                 2.7770                 1.7987
 IR Inten    --     78.7852                 0.4650                 0.4120

                     46                     47                     48
                      A                      A                      A
 Frequencies --    679.8148               723.2220               761.6456
 Red. masses --      4.2424                 7.8426                 4.6504
 Frc consts  --      1.1552                 2.4169                 1.5895
 IR Inten    --     10.6010                16.6187                35.3738

                     49                     50                     51
                      A                      A                      A
 Frequencies --    766.8863               785.8084               815.4497
 Red. masses --      3.0542                 3.8912                10.8074
 Frc consts  --      1.0583                 1.4157                 4.2342
 IR Inten    --     12.9313                19.0798                 8.8296

                     52                     53                     54
                      A                      A                      A
 Frequencies --    827.6158               850.9837               862.5478
 Red. masses --      6.3565                 2.4028                 2.3122
 Frc consts  --      2.5652                 1.0252                 1.0135
 IR Inten    --      5.8000                33.9305                 2.8112

                     55                     56                     57
                      A                      A                      A
 Frequencies --    906.0025               926.7203               993.3087
 Red. masses --      1.7996                 5.1616                 2.0217
 Frc consts  --      0.8703                 2.6118                 1.1753
 IR Inten    --     34.9952                13.4760                 3.1904

                     58                     59                     60
                      A                      A                      A
 Frequencies --   1025.2764              1044.3223              1062.6059
 Red. masses --      3.8779                 6.2115                 5.1624
 Frc consts  --      2.4017                 3.9913                 3.4343
 IR Inten    --     14.6324                 1.5817                40.7723

                     61                     62                     63
                      A                      A                      A
 Frequencies --   1117.3333              1213.2615              1260.1080
 Red. masses --      5.6856                 6.8530                10.1011
 Frc consts  --      4.1821                 5.9435                 9.4501
 IR Inten    --     13.6920                 4.2157                46.4240

                     64                     65                     66
                      A                      A                      A
 Frequencies --   1285.6158              1381.5214              1408.8554
 Red. masses --     10.4356                 8.3576                 8.5338
 Frc consts  --     10.1623                 9.3983                 9.9799
 IR Inten    --    122.0973                 0.4476                39.5584

                     67                     68                     69
                      A                      A                      A
 Frequencies --   1414.6264              1429.3247              1452.0739
 Red. masses --     10.2588                 8.4677                10.4868
 Frc consts  --     12.0957                10.1924                13.0278
 IR Inten    --    212.2799                 8.0110               114.4356

                     70                     71                     72
                      A                      A                      A
 Frequencies --   1502.4072              1627.9147              1643.7485
 Red. masses --     10.1351                11.2973                10.8038
 Frc consts  --     13.4788                17.6396                17.1988
 IR Inten    --     92.5873                41.0619                 9.1362

                     73                     74                     75
                      A                      A                      A
 Frequencies --   1662.1832              1698.9535              1720.4521
 Red. masses --     10.0989                10.7753                10.9635
 Frc consts  --     16.4392                18.3249                19.1199
 IR Inten    --     16.2660               300.6320               119.4861

                     76                     77                     78
                      A                      A                      A
 Frequencies --   4588.8792              4733.1421              4740.7133
 Red. masses --      1.0320                 1.0874                 1.0863
 Frc consts  --     12.8040                14.3522                14.3849
 IR Inten    --      9.2702                11.3717                21.4589

                     79                     80                     81
                      A                      A                      A
 Frequencies --   4750.9909              4754.2538              4764.3767
 Red. masses --      1.0870                 1.0884                 1.0896
 Frc consts  --     14.4559                14.4940                14.5724
 IR Inten    --      1.2841                 0.1623                 5.0788

                     82                     83                     84
                      A                      A                      A
 Frequencies --   4764.6258              4774.6492              4776.4460
 Red. masses --      1.0895                 1.0923                 1.0893
 Frc consts  --     14.5727                14.6713                14.6417
 IR Inten    --      0.2456                 7.1834                 1.5451

                     85                     86                     87
                      A                      A                      A
 Frequencies --   4788.8082              4802.7425              4806.4546
 Red. masses --      1.0903                 1.1068                 1.1064
 Frc consts  --     14.7317                15.0413                15.0599
 IR Inten    --      5.6434                 6.9475                 5.1471

 - Thermochemistry -
 -------------------
 Temperature   298.150 Kelvin.  Pressure   1.00000 Atm.
 Atom     1 has atomic number  8 and mass  15.99491

 Molecular mass:   292.02959 amu.
 Principal axes and moments of inertia in atomic units:
                           1         2         3
     Eigenvalues --  3318.50299********************
           X            1.00000  -0.00311  -0.00006
           Y            0.00311   0.99925   0.03855
           Z           -0.00006  -0.03855   0.99926
 This molecule is an asymmetric top.
 Rotational symmetry number  1.
 Warning -- assumption of classical behavior for rotation
           may cause significant error
 Rotational temperatures (Kelvin)      0.02610     0.00639     0.00570
 Rotational constants (GHZ):           0.54384     0.13325     0.11878
   22 imaginary frequencies ignored.
 Zero-point vibrational energy     601500.2 (Joules/Mol)
                                  143.76201 (Kcal/Mol)
 Warning -- explicit consideration of  19 degrees of freedom as
           vibrations may cause significant error
 Vibrational temperatures:     95.68   129.92   184.21   215.75   271.73
          (Kelvin)            302.09   307.86   341.44   451.28   494.19
                              521.93   572.46   605.85   616.56   652.14
                              706.67   719.73   797.89   801.47   893.41
                              903.13   930.52   952.99   978.10  1040.56
                             1095.84  1103.38  1130.60  1173.25  1190.75
                             1224.38  1241.01  1303.54  1333.34  1429.15
                             1475.14  1502.55  1528.85  1607.59  1745.61
                             1813.01  1849.71  1987.70  2027.03  2035.33
                             2056.48  2089.21  2161.63  2342.21  2364.99
                             2391.51  2444.42  2475.35  6602.37  6809.94
                             6820.83  6835.62  6840.31  6854.88  6855.23
                             6869.66  6872.24  6890.03  6910.08  6915.42

 Zero-point correction=                           0.229099 (Hartree/Particle)
 Thermal correction to Energy=                    0.241735
 Thermal correction to Enthalpy=                  0.242679
 Thermal correction to Gibbs Free Energy=         0.188767
 Sum of electronic and zero-point Energies=          -1626.876298
 Sum of electronic and thermal Energies=             -1626.863662
 Sum of electronic and thermal Enthalpies=           -1626.862718
 Sum of electronic and thermal Free Energies=        -1626.916629

                     E (Thermal)             CV                S
                      KCal/Mol        Cal/Mol-Kelvin    Cal/Mol-Kelvin
 Total                  151.691             50.026            113.467
 Electronic               0.000              0.000              0.000
 Translational            0.889              2.981             42.912
 Rotational               0.889              2.981             34.878
 Vibrational            149.914             44.064             35.676
 Vibration     1          0.598              1.970              4.254
 Vibration     2          0.602              1.956              3.654
 Vibration     3          0.611              1.925              2.975
 Vibration     4          0.618              1.903              2.673
 Vibration     5          0.633              1.855              2.239
 Vibration     6          0.642              1.826              2.044
 Vibration     7          0.644              1.820              2.009
 Vibration     8          0.656              1.784              1.823
 Vibration     9          0.702              1.648              1.343
 Vibration    10          0.722              1.589              1.196
 Vibration    11          0.737              1.549              1.110
 Vibration    12          0.764              1.475              0.970
 Vibration    13          0.784              1.424              0.888
 Vibration    14          0.790              1.408              0.863
 Vibration    15          0.812              1.354              0.786
 Vibration    16          0.847              1.270              0.681
 Vibration    17          0.856              1.249              0.658
 Vibration    18          0.910              1.130              0.535
 Vibration    19          0.913              1.124              0.530

 Normal termination of Gaussian 16 at Mon Mar  6 11:06:20 2023.
