 Gaussian 16, Revision C.01,
 Gaussian 16:  ES64L-G16RevC.01  3-Jul-2019

 ----------------------------------------------------------------------
 #p pop=(regular,nbo,savenbos) freq=noraman def2svp empiricaldispersion
 =gd3bj output=wfx pbe1pbe
 ----------------------------------------------------------------------

 ----------------------------------------
 MAJTID_Complex_2_Ligand_0_ON_Cu_oriented
 ----------------------------------------
 Symbolic Z-matrix:
 Charge = -1 Multiplicity = 1

                         Standard orientation:
 ---------------------------------------------------------------------
 Center     Atomic      Atomic             Coordinates (Angstroms)
 Number     Number       Type             X           Y           Z
 ---------------------------------------------------------------------
      1          7           0       -0.088749    1.039717   -0.875541
      2          8           0       -2.806280    0.801248   -1.502549
      3          8           0       -5.169935    0.029463   -0.758736
      4          6           0       -1.762943   -0.123294    0.457643
      5          6           0       -4.276258   -1.025531    1.243210
      6          1           0       -5.116931   -1.323064    1.507490
      7          6           0       -6.489024   -0.365915   -0.351860
      8          1           0       -6.684756    0.010746    0.509298
      9          1           0       -6.535337   -1.322929   -0.301273
     10          1           0       -7.130334   -0.048473   -0.992123
     11          6           0       -4.138875   -0.304877    0.078487
     12          6           0       -2.870746    0.139236   -0.379459
     13          6           0       -3.157521   -1.312851    2.029898
     14          1           0       -3.248671   -1.811202    2.810491
     15          6           0       -1.922189   -0.859701    1.647335
     16          1           0       -1.180453   -1.039370    2.177984
     17          6           0       -0.444806    0.434033    0.196415
     18          1           0        0.195208    0.341964    0.865189
     19          6           0        2.829322    1.809189    1.036088
     20          1           0        2.476309    2.637782    1.267516
     21          6           0        3.898592    1.277340    1.797734
     22          1           0        4.256211    1.766130    2.503497
     23          6           0        4.399501    0.046814    1.491805
     24          1           0        5.091701   -0.308691    2.000516
     25          6           0        3.872909   -0.689299    0.408687
     26          6           0        2.820428   -0.150816   -0.383639
     27          6           0        2.301301    1.136400   -0.033134
     28          6           0        0.944698    3.230812   -0.642509
     29          1           0        0.611364    3.333406    0.252304
     30          1           0        0.289170    3.549419   -1.267322
     31          1           0        1.754511    3.736147   -0.741523
     32          6           0        1.230754    1.749502   -0.912953
     33          1           0        1.556293    1.689209   -1.835266
     34          6           0        2.890013   -2.120718   -1.790051
     35          1           0        2.576858   -2.588014   -2.530267
     36          6           0        2.350717   -0.896820   -1.496612
     37          1           0        1.671998   -0.550859   -2.030829
     38          6           0        4.387219   -1.979197    0.053434
     39          1           0        5.074291   -2.346755    0.560404
     40          6           0        3.894592   -2.681278   -1.006119
     41          1           0        4.227428   -3.527338   -1.203415
 ---------------------------------------------------------------------

 SCF Done:  E(RPBE1PBE) =  -976.004770867     A.U. after   19 cycles

 The electronic state is 1-A.
 Alpha  occ. eigenvalues --  -19.08311 -18.94653 -14.21180 -10.15121 -10.14573
 Alpha  occ. eigenvalues --  -10.13957 -10.13344 -10.13209 -10.13111 -10.12952
 Alpha  occ. eigenvalues --  -10.12723 -10.12596 -10.12498 -10.12477 -10.12227
 Alpha  occ. eigenvalues --  -10.11259 -10.09379 -10.09316 -10.07164 -10.05830
 Alpha  occ. eigenvalues --  -10.05432 -10.04984 -10.04605  -0.92392  -0.81008
 Alpha  occ. eigenvalues --   -0.78829  -0.77577  -0.75668  -0.71042  -0.69844
 Alpha  occ. eigenvalues --   -0.68027  -0.67526  -0.64874  -0.64042  -0.60896
 Alpha  occ. eigenvalues --   -0.57724  -0.56866  -0.56035  -0.55037  -0.51962
 Alpha  occ. eigenvalues --   -0.48682  -0.47033  -0.46171  -0.45654  -0.43831
 Alpha  occ. eigenvalues --   -0.42760  -0.40205  -0.38560  -0.38105  -0.37363
 Alpha  occ. eigenvalues --   -0.37196  -0.36556  -0.35917  -0.34783  -0.34432
 Alpha  occ. eigenvalues --   -0.34286  -0.32677  -0.31594  -0.31310  -0.29862
 Alpha  occ. eigenvalues --   -0.29099  -0.28832  -0.27917  -0.25949  -0.25523
 Alpha  occ. eigenvalues --   -0.25489  -0.24947  -0.24608  -0.22467  -0.21177
 Alpha  occ. eigenvalues --   -0.20671  -0.19472  -0.17647  -0.16927  -0.16188
 Alpha  occ. eigenvalues --   -0.13970  -0.13847  -0.09908  -0.08193  -0.03099
 Alpha  occ. eigenvalues --   -0.01379
 Alpha virt. eigenvalues --    0.05122   0.08092   0.12352   0.13328   0.18064
 Alpha virt. eigenvalues --    0.18882   0.19397   0.19532   0.20372   0.20402
 Alpha virt. eigenvalues --    0.21740   0.22007   0.23367   0.23687   0.25021

 Mulliken charges:
               1
     1  N   -0.234115
     2  O   -0.408739
     3  O   -0.373899
     4  C   -0.121019
     5  C   -0.024054
     6  H   -0.173224
     7  C    0.367781
     8  H   -0.041841
     9  H   -0.041794
    10  H   -0.037178
    11  C    0.131017
    12  C    0.141717
    13  C    0.046977
    14  H   -0.152890
    15  C    0.088459
    16  H   -0.159797
    17  C    0.147111
    18  H   -0.132957
    19  C    0.059139
    20  H   -0.130300
    21  C    0.122725
    22  H   -0.116966
    23  C    0.084691
    24  H   -0.137324
    25  C    0.018507
    26  C    0.010840
    27  C   -0.097699
    28  C    0.262215
    29  H   -0.031001
    30  H   -0.018708
    31  H   -0.053613
    32  C    0.093611
    33  H   -0.043028
    34  C    0.104326
    35  H   -0.105871
    36  C    0.111586
    37  H   -0.094664
    38  C    0.076409
    39  H   -0.132351
    40  C    0.109162
    41  H   -0.113239
 Sum of Mulliken charges =  -1.00000

 Dipole moment (field-independent basis, Debye):
    X=              8.4828    Y=             -1.5058    Z=              3.0905  Tot=              9.1529
 Quadrupole moment (field-independent basis, Debye-Ang):
   XX=           -166.8243   YY=           -137.3433   ZZ=           -144.6687
   XY=              3.4347   XZ=             -5.2517   YZ=              7.5564

  Exact polarizability:     303.050       2.676     204.981      15.909       2.066     190.382
 Approx polarizability:     380.998      -3.501     340.326      44.367      -6.670     358.981

 Summary of Natural Population Analysis:

                                       Natural Population
                Natural  -----------------------------------------------
    Atom  No    Charge         Core      Valence    Rydberg      Total
 -----------------------------------------------------------------------
      N    1   -0.50801      1.99937     5.48942    0.01922     7.50801
      O    2   -0.70121      1.99980     6.69347    0.00795     8.70121
      O    3   -0.53912      1.99966     6.52822    0.01124     8.53912
      C    4   -0.21554      1.99894     4.19730    0.01930     6.21554
      C    5   -0.30695      1.99901     4.29292    0.01502     6.30695
      H    6    0.15799      0.00000     0.83845    0.00357     0.84201
      C    7   -0.14921      1.99892     4.13966    0.01064     6.14921
      H    8    0.14361      0.00000     0.85169    0.00470     0.85639
      H    9    0.14280      0.00000     0.85261    0.00459     0.85720
      H   10    0.15694      0.00000     0.84102    0.00205     0.84306
      C   11    0.26843      1.99867     3.70751    0.02540     5.73157
      C   12    0.36400      1.99874     3.59684    0.04042     5.63600
      C   13   -0.27308      1.99912     4.25673    0.01723     6.27308
      H   14    0.15330      0.00000     0.84330    0.00340     0.84670
      C   15   -0.18145      1.99907     4.16712    0.01526     6.18145
      H   16    0.15358      0.00000     0.84257    0.00386     0.84642
      C   17    0.14158      1.99902     3.83124    0.02816     5.85842
      H   18    0.10791      0.00000     0.88348    0.00861     0.89209
      C   19   -0.18945      1.99894     4.17557    0.01494     6.18945
      H   20    0.17230      0.00000     0.82453    0.00317     0.82770
      C   21   -0.15804      1.99911     4.14417    0.01476     6.15804
      H   22    0.16285      0.00000     0.83409    0.00306     0.83715
      C   23   -0.17811      1.99904     4.16337    0.01570     6.17811
      H   24    0.16516      0.00000     0.83152    0.00332     0.83484
      C   25   -0.05119      1.99898     4.03670    0.01552     6.05119
      C   26   -0.05390      1.99888     4.03905    0.01597     6.05390
      C   27   -0.00729      1.99894     3.99043    0.01793     6.00729
      C   28   -0.54485      1.99915     4.53479    0.01091     6.54485
      H   29    0.18364      0.00000     0.81338    0.00298     0.81636
      H   30    0.20421      0.00000     0.79203    0.00377     0.79579
      H   31    0.17167      0.00000     0.82494    0.00339     0.82833
      C   32   -0.02291      1.99894     4.00222    0.02174     6.02291
      H   33    0.18422      0.00000     0.81094    0.00484     0.81578
      C   34   -0.17178      1.99910     4.15811    0.01457     6.17178
      H   35    0.16649      0.00000     0.83040    0.00311     0.83351
      C   36   -0.12604      1.99903     4.11209    0.01492     6.12604
      H   37    0.18754      0.00000     0.80706    0.00540     0.81246
      C   38   -0.15665      1.99905     4.14192    0.01567     6.15665
      H   39    0.16174      0.00000     0.83490    0.00336     0.83826
      C   40   -0.17955      1.99910     4.16617    0.01427     6.17955
      H   41    0.16438      0.00000     0.83250    0.00312     0.83562
 =======================================================================
   * Total *   -1.00000     45.97858   115.55439    0.46703   162.00000

 ******   30 imaginary frequencies (negative Signs) ******

                      1                      2                      3
                      A                      A                      A
 Frequencies --  -1475.7683             -1461.1941             -1440.4556
 Red. masses --      1.0771                 1.0820                 1.0704
 Frc consts  --      1.3821                 1.3611                 1.3085
 IR Inten    --     53.2405                40.3870                63.4378

                      4                      5                      6
                      A                      A                      A
 Frequencies --  -1402.7931             -1391.8057             -1379.4349
 Red. masses --      1.0104                 1.0438                 1.0088
 Frc consts  --      1.1715                 1.1914                 1.1310
 IR Inten    --      0.1514                17.1049                 0.0978

                      7                      8                      9
                      A                      A                      A
 Frequencies --  -1374.2031             -1373.8957             -1326.8913
 Red. masses --      1.0418                 1.0430                 1.0389
 Frc consts  --      1.1592                 1.1600                 1.0777
 IR Inten    --      1.6412                 3.0177                 1.1375

                     10                     11                     12
                      A                      A                      A
 Frequencies --  -1284.8302             -1256.3255             -1224.6586
 Red. masses --      1.0485                 1.0264                 1.0326
 Frc consts  --      1.0198                 0.9545                 0.9124
 IR Inten    --      1.5111                 1.1648                 0.4769

                     13                     14                     15
                      A                      A                      A
 Frequencies --  -1187.4744             -1019.3294             -1005.6015
 Red. masses --      1.0336                 1.0425                 1.0536
 Frc consts  --      0.8587                 0.6382                 0.6277
 IR Inten    --      0.6924                27.2992                 2.9373

                     16                     17                     18
                      A                      A                      A
 Frequencies --   -960.1797              -944.1210              -935.1579
 Red. masses --      1.0818                 1.0924                 1.0794
 Frc consts  --      0.5876                 0.5737                 0.5562
 IR Inten    --      3.2612                 0.2642                 1.3687

                     19                     20                     21
                      A                      A                      A
 Frequencies --   -893.0592              -887.6489              -871.8149
 Red. masses --      1.0960                 1.1075                 1.1403
 Frc consts  --      0.5150                 0.5141                 0.5106
 IR Inten    --      9.8321                 4.1578                 1.0954

                     22                     23                     24
                      A                      A                      A
 Frequencies --   -852.5832              -827.9877              -781.9213
 Red. masses --      1.0760                 1.1139                 1.0696
 Frc consts  --      0.4608                 0.4499                 0.3853
 IR Inten    --     10.2774                 9.3308                 2.8972

                     25                     26                     27
                      A                      A                      A
 Frequencies --   -765.3838              -751.4893              -717.4140
 Red. masses --      1.0762                 1.0699                 1.0789
 Frc consts  --      0.3714                 0.3560                 0.3272
 IR Inten    --     13.8349                12.9835                 3.9677

                     28                     29                     30
                      A                      A                      A
 Frequencies --   -699.2017              -318.4901              -191.2500
 Red. masses --      1.1329                 2.1735                 2.6725
 Frc consts  --      0.3263                 0.1299                 0.0576
 IR Inten    --      5.7540                 1.5790                 3.9965

                     31                     32                     33
                      A                      A                      A
 Frequencies --     76.5307                96.6243               107.8288
 Red. masses --      7.1471                 9.5166                 7.3395
 Frc consts  --      0.0247                 0.0523                 0.0503
 IR Inten    --      1.0873                 2.1009                 2.6828

                     34                     35                     36
                      A                      A                      A
 Frequencies --    162.3361               187.6537               235.3813
 Red. masses --      7.4892                 6.8630                 7.6635
 Frc consts  --      0.1163                 0.1424                 0.2502
 IR Inten    --      1.1963                 2.0461                 1.2867

                     37                     38                     39
                      A                      A                      A
 Frequencies --    250.5121               285.2115               318.9481
 Red. masses --      6.8601                 9.6699                 7.3424
 Frc consts  --      0.2537                 0.4635                 0.4401
 IR Inten    --      0.1620                 0.3809                 1.4830

                     40                     41                     42
                      A                      A                      A
 Frequencies --    339.3183               341.5821               351.7535
 Red. masses --      6.6224                 1.2480                 8.1673
 Frc consts  --      0.4492                 0.0858                 0.5954
 IR Inten    --      2.2294                15.8592                 4.5955

                     43                     44                     45
                      A                      A                      A
 Frequencies --    388.2246               399.2433               447.9712
 Red. masses --      8.2259                 6.1333                 6.7212
 Frc consts  --      0.7305                 0.5760                 0.7947
 IR Inten    --     14.4911                 3.5364                 3.2334

                     46                     47                     48
                      A                      A                      A
 Frequencies --    471.5572               484.7726               490.6419
 Red. masses --      6.0238                 4.7812                 8.6105
 Frc consts  --      0.7892                 0.6620                 1.2213
 IR Inten    --      0.3293                 1.4085                 0.9194

                     49                     50                     51
                      A                      A                      A
 Frequencies --    556.8552               562.3199               586.1499
 Red. masses --      2.0194                 2.8579                10.0397
 Frc consts  --      0.3689                 0.5324                 2.0323
 IR Inten    --     45.0897                26.2876                 0.3366

                     52                     53                     54
                      A                      A                      A
 Frequencies --    590.5587               600.3692               615.8507
 Red. masses --      5.9959                 6.7712                 4.8640
 Frc consts  --      1.2321                 1.4380                 1.0869
 IR Inten    --      0.9319                27.1613                 1.9856

                     55                     56                     57
                      A                      A                      A
 Frequencies --    626.6307               636.8880               643.1961
 Red. masses --      8.8721                 5.0341                 5.6752
 Frc consts  --      2.0526                 1.2031                 1.3833
 IR Inten    --      3.1500                 0.0730                21.1953

                     58                     59                     60
                      A                      A                      A
 Frequencies --    658.7634               681.3797               696.2647
 Red. masses --      9.1945                 3.9498                 6.2965
 Frc consts  --      2.3509                 1.0805                 1.7984
 IR Inten    --      1.1469                 0.4015                 2.2565

                     61                     62                     63
                      A                      A                      A
 Frequencies --    717.7516               741.8773               762.5339
 Red. masses --      6.0377                 5.2756                 2.7010
 Frc consts  --      1.8326                 1.7107                 0.9253
 IR Inten    --      6.3700                 2.8242                10.1316

                     64                     65                     66
                      A                      A                      A
 Frequencies --    788.7443               816.2300               827.6327
 Red. masses --      4.7344                 3.0896                11.2053
 Frc consts  --      1.7353                 1.2128                 4.5222
 IR Inten    --      0.5576                21.5517                 4.0280

                     67                     68                     69
                      A                      A                      A
 Frequencies --    844.6809               879.3351               890.3013
 Red. masses --      3.8466                 3.2973                 4.8816
 Frc consts  --      1.6170                 1.5022                 2.2797
 IR Inten    --      9.6257                30.1802                 0.5590

                     70                     71                     72
                      A                      A                      A
 Frequencies --    913.6848               917.6917               925.4933
 Red. masses --      5.3268                 6.1788                 3.5737
 Frc consts  --      2.6201                 3.0658                 1.8035
 IR Inten    --      5.8180                20.6786                39.5060

                     73                     74                     75
                      A                      A                      A
 Frequencies --    944.7832              1003.1423              1011.6720
 Red. masses --      2.4354                 2.2459                 1.0431
 Frc consts  --      1.2808                 1.3316                 0.6290
 IR Inten    --      7.3377                 2.7925                14.5757

                     76                     77                     78
                      A                      A                      A
 Frequencies --   1018.1359              1042.4895              1064.4919
 Red. masses --      2.7291                 1.4934                 1.5201
 Frc consts  --      1.6668                 0.9562                 1.0149
 IR Inten    --     30.9776                 2.1327                17.8194

                     79                     80                     81
                      A                      A                      A
 Frequencies --   1072.1846              1149.5533              1179.5497
 Red. masses --      2.1196                 6.9708                 6.5905
 Frc consts  --      1.4357                 5.4274                 5.4025
 IR Inten    --     11.5780                 7.1391                20.8057

                     82                     83                     84
                      A                      A                      A
 Frequencies --   1205.2363              1280.9359              1315.5825
 Red. masses --      7.1994                 8.0304                 8.2368
 Frc consts  --      6.1615                 7.7632                 8.3993
 IR Inten    --      4.8981               253.1097                 0.1550

                     85                     86                     87
                      A                      A                      A
 Frequencies --   1342.8600              1349.4025              1405.8650
 Red. masses --      8.9038                10.0440                 9.3871
 Frc consts  --      9.4599                10.7756                10.9312
 IR Inten    --     33.4944               195.9591                 1.4277

                     88                     89                     90
                      A                      A                      A
 Frequencies --   1440.4606              1445.3965              1451.4985
 Red. masses --      9.5480                10.2111                 9.8959
 Frc consts  --     11.6726                12.5688                12.2840
 IR Inten    --      2.1131               167.3693               303.2337

                     91                     92                     93
                      A                      A                      A
 Frequencies --   1493.1889              1540.5937              1552.0782
 Red. masses --      9.2326                 9.8300                10.1697
 Frc consts  --     12.1284                13.7462                14.4340
 IR Inten    --      6.5960                 8.8166                96.8890

                     94                     95                     96
                      A                      A                      A
 Frequencies --   1625.3828              1642.9643              1660.6696
 Red. masses --     10.8911                10.0273                10.2413
 Frc consts  --     16.9525                15.9474                16.6407
 IR Inten    --      4.2294                 6.8835                22.0675

                     97                     98                     99
                      A                      A                      A
 Frequencies --   1664.4706              1695.3413              1704.5921
 Red. masses --     10.8323                10.8130                10.1960
 Frc consts  --     17.6817                18.3109                17.4550
 IR Inten    --    199.6611                23.7905               316.5637

                    100                    101                    102
                      A                      A                      A
 Frequencies --   4355.3288              4465.4238              4468.4997
 Red. masses --      1.0870                 1.0301                 1.0320
 Frc consts  --     12.1482                12.1019                12.1410
 IR Inten    --     19.5093                76.5778                15.5220

                    103                    104                    105
                      A                      A                      A
 Frequencies --   4666.8845              4673.4412              4675.0336
 Red. masses --      1.1075                 1.1064                 1.1081
 Frc consts  --     14.2122                14.2370                14.2691
 IR Inten    --     17.7970                15.9393                 7.2052

                    106                    107                    108
                      A                      A                      A
 Frequencies --   4680.8139              4994.3754              5009.5887
 Red. masses --      1.1072                 1.0869                 1.0863
 Frc consts  --     14.2929                15.9739                16.0618
 IR Inten    --      1.9320                 5.8669                 5.8106

                    109                    110                    111
                      A                      A                      A
 Frequencies --   5022.3953              5023.6131              5026.4579
 Red. masses --      1.0867                 1.0888                 1.0868
 Frc consts  --     16.1510                16.1899                16.1773
 IR Inten    --      1.2934                12.9687                 0.9116

                    112                    113                    114
                      A                      A                      A
 Frequencies --   5031.6004              5033.3743              5035.6969
 Red. masses --      1.0881                 1.0906                 1.0887
 Frc consts  --     16.2308                16.2793                16.2655
 IR Inten    --      4.8102                10.3640                 1.1255

                    115                    116                    117
                      A                      A                      A
 Frequencies --   5038.2390              5042.5437              5043.4095
 Red. masses --      1.0900                 1.0916                 1.0922
 Frc consts  --     16.3021                16.3537                16.3682
 IR Inten    --      1.1563                 2.8571                 3.9945

 - Thermochemistry -
 -------------------
 Temperature   298.150 Kelvin.  Pressure   1.00000 Atm.
 Atom     1 has atomic number  7 and mass  14.00307

 Molecular mass:   304.13375 amu.
 Principal axes and moments of inertia in atomic units:
                           1         2         3
     Eigenvalues --  3503.19878********************
           X            0.99999   0.00445  -0.00194
           Y           -0.00445   0.99999  -0.00182
           Z            0.00193   0.00182   1.00000
 This molecule is an asymmetric top.
 Rotational symmetry number  1.
 Warning -- assumption of classical behavior for rotation
           may cause significant error
 Rotational temperatures (Kelvin)      0.02472     0.00619     0.00587
 Rotational constants (GHZ):           0.51517     0.12902     0.12240
   30 imaginary frequencies ignored.
 Zero-point vibrational energy     876303.6 (Joules/Mol)
                                  209.44158 (Kcal/Mol)
 Warning -- explicit consideration of  24 degrees of freedom as
           vibrations may cause significant error
 Vibrational temperatures:    110.11   139.02   155.14   233.57   269.99
          (Kelvin)            338.66   360.43   410.36   458.90   488.20
                              491.46   506.09   558.57   574.42   644.53
                              678.47   697.48   705.92   801.19   809.05
                              843.34   849.68   863.80   886.07   901.58
                              916.34   925.42   947.81   980.35  1001.77
                             1032.68  1067.40  1097.12  1134.83  1174.37
                             1190.78  1215.31  1265.17  1280.94  1314.59
                             1320.35  1331.58  1359.33  1443.30  1455.57
                             1464.87  1499.91  1531.57  1542.63  1653.95
                             1697.11  1734.07  1842.98  1892.83  1932.08
                             1941.49  2022.73  2072.50  2079.60  2088.38
                             2148.37  2216.57  2233.09  2338.56  2363.86
                             2389.33  2394.80  2439.22  2452.53  6266.35
                             6424.75  6429.17  6714.61  6724.04  6726.33
                             6734.65  7185.79  7207.68  7226.11  7227.86
                             7231.95  7239.35  7241.90  7245.24  7248.90
                             7255.10  7256.34

 Zero-point correction=                           0.333766 (Hartree/Particle)
 Thermal correction to Energy=                    0.347625
 Thermal correction to Enthalpy=                  0.348569
 Thermal correction to Gibbs Free Energy=         0.293147
 Sum of electronic and zero-point Energies=           -975.671004
 Sum of electronic and thermal Energies=              -975.657146
 Sum of electronic and thermal Enthalpies=            -975.656202
 Sum of electronic and thermal Free Energies=         -975.711624

                     E (Thermal)             CV                S
                      KCal/Mol        Cal/Mol-Kelvin    Cal/Mol-Kelvin
 Total                  218.138             59.016            116.646
 Electronic               0.000              0.000              0.000
 Translational            0.889              2.981             43.034
 Rotational               0.889              2.981             34.934
 Vibrational            216.360             53.054             38.678
 Vibration     1          0.599              1.965              3.978
 Vibration     2          0.603              1.952              3.521
 Vibration     3          0.606              1.943              3.308
 Vibration     4          0.622              1.889              2.522
 Vibration     5          0.632              1.857              2.251
 Vibration     6          0.655              1.787              1.838
 Vibration     7          0.663              1.762              1.727
 Vibration     8          0.683              1.701              1.502
 Vibration     9          0.705              1.637              1.315
 Vibration    10          0.719              1.597              1.215
 Vibration    11          0.721              1.592              1.205
 Vibration    12          0.728              1.572              1.158
 Vibration    13          0.756              1.495              1.007
 Vibration    14          0.765              1.472              0.965
 Vibration    15          0.807              1.365              0.802
 Vibration    16          0.828              1.313              0.733
 Vibration    17          0.841              1.284              0.697
 Vibration    18          0.846              1.271              0.682
 Vibration    19          0.912              1.125              0.530
 Vibration    20          0.918              1.113              0.519
 Vibration    21          0.943              1.061              0.474
 Vibration    22          0.948              1.052              0.466
 Vibration    23          0.959              1.031              0.449
 Vibration    24          0.975              0.998              0.423

 Normal termination of Gaussian 16 at Mon Mar  6 11:49:44 2023.
