 Gaussian 16, Revision C.01,
 Gaussian 16:  ES64L-G16RevC.01  3-Jul-2019

 ----------------------------------------------------------------------
 #p pop=(regular,nbo,savenbos) freq=noraman def2svp empiricaldispersion
 =gd3bj output=wfx pbe1pbe
 ----------------------------------------------------------------------

 ----------------------------------------
 NAPYUB_Complex_9_Ligand_0_ON_Cu_oriented
 ----------------------------------------
 Symbolic Z-matrix:
 Charge = -1 Multiplicity = 1

                         Standard orientation:
 ---------------------------------------------------------------------
 Center     Atomic      Atomic             Coordinates (Angstroms)
 Number     Number       Type             X           Y           Z
 ---------------------------------------------------------------------
      1          6           0        1.412590   -0.868802    0.877253
      2          1           0        1.876252   -1.513515    1.362231
      3          6           0        0.044678   -0.737711    1.025783
      4          1           0       -0.404021   -1.288993    1.626017
      5          6           0       -0.659362    0.190993    0.304547
      6          6           0       -2.160896    0.333145    0.532892
      7          1           0       -2.374645   -0.106401    1.381612
      8          6           0       -2.945008   -0.360628   -0.549160
      9          1           0       -2.560898   -1.240885   -0.682033
     10          1           0       -2.826068    0.135041   -1.373254
     11          6           0       -4.432965   -0.525471   -0.305773
     12          8           0       -4.981307   -1.586764   -0.686530
     13          8           0       -5.088385    0.433823    0.185253
     14         35           0        3.974665   -0.158271   -0.136525
     15          6           0        2.083298   -0.048375    0.013449
     16          6           0        0.037793    0.991012   -0.604521
     17          1           0       -0.431111    1.606190   -1.122244
     18          6           0        1.415451    0.888669   -0.753269
     19          1           0        1.873859    1.433011   -1.352156
     20          7           0       -2.576539    1.751823    0.645339
     21          1           0       -2.352671    2.168040   -0.120274
     22          1           0       -2.094146    2.130761    1.304114
 ---------------------------------------------------------------------

 SCF Done:  E(RPBE1PBE) =  -3125.98063603     A.U. after   17 cycles

 The electronic state is 1-A.
 Alpha  occ. eigenvalues -- -483.11383 -62.54761 -56.33738 -56.33408 -56.33404
 Alpha  occ. eigenvalues --  -18.92037 -18.91339 -14.21435 -10.19884 -10.14643
 Alpha  occ. eigenvalues --  -10.14284 -10.14052 -10.13666 -10.13075 -10.12115
 Alpha  occ. eigenvalues --  -10.09303 -10.03894  -8.69374  -6.50805  -6.49589
 Alpha  occ. eigenvalues --   -6.49584  -2.59372  -2.59013  -2.59010  -2.58033
 Alpha  occ. eigenvalues --   -2.58032  -0.82234  -0.81444  -0.79801  -0.74268
 Alpha  occ. eigenvalues --   -0.71216  -0.70265  -0.67374  -0.62594  -0.57325
 Alpha  occ. eigenvalues --   -0.54495  -0.51350  -0.44589  -0.42077  -0.41222
 Alpha  occ. eigenvalues --   -0.39286  -0.37871  -0.35489  -0.33671  -0.32509
 Alpha  occ. eigenvalues --   -0.31432  -0.29732  -0.27487  -0.26044  -0.25386
 Alpha  occ. eigenvalues --   -0.23559  -0.22341  -0.21616  -0.18994  -0.17950
 Alpha  occ. eigenvalues --   -0.17098  -0.15907  -0.12031  -0.03437  -0.03094
 Alpha  occ. eigenvalues --   -0.00682
 Alpha virt. eigenvalues --    0.07473   0.08405   0.10269   0.19281   0.20560
 Alpha virt. eigenvalues --    0.21456   0.23598   0.24059   0.24564   0.27243
 Alpha virt. eigenvalues --    0.28011   0.31355   0.31989   0.32297   0.34548

 Mulliken charges:
               1
     1  C    0.121545
     2  H   -0.120467
     3  C    0.083483
     4  H   -0.111248
     5  C   -0.041753
     6  C    0.060418
     7  H   -0.053054
     8  C    0.200344
     9  H   -0.073100
    10  H   -0.061045
    11  C    0.053782
    12  O   -0.441777
    13  O   -0.434685
    14  Br  -0.095088
    15  C   -0.049061
    16  C    0.092813
    17  H   -0.122840
    18  C    0.121413
    19  H   -0.120876
    20  N   -0.055553
    21  H    0.023669
    22  H    0.023079
 Sum of Mulliken charges =  -1.00000

 Dipole moment (field-independent basis, Debye):
    X=             20.2536    Y=              2.5945    Z=              0.9464  Tot=             20.4410
 Quadrupole moment (field-independent basis, Debye-Ang):
   XX=           -220.9843   YY=            -94.9601   ZZ=            -87.8875
   XY=            -11.0103   XZ=             -3.7087   YZ=             -7.7629

  Exact polarizability:     192.453      -1.621      95.339      -2.772      -8.781      82.103
 Approx polarizability:     248.066      -4.368     160.640      -6.778     -20.088     134.827

 Summary of Natural Population Analysis:

                                       Natural Population
                Natural  -----------------------------------------------
    Atom  No    Charge         Core      Valence    Rydberg      Total
 -----------------------------------------------------------------------
      C    1   -0.18764      1.99888     4.17207    0.01669     6.18764
      H    2    0.18007      0.00000     0.81657    0.00336     0.81993
      C    3   -0.16366      1.99894     4.14942    0.01529     6.16366
      H    4    0.17649      0.00000     0.82012    0.00339     0.82351
      C    5   -0.01473      1.99897     3.99623    0.01953     6.01473
      C    6   -0.00011      1.99897     3.97806    0.02308     6.00011
      H    7    0.18218      0.00000     0.81255    0.00527     0.81782
      C    8   -0.49296      1.99890     4.47178    0.02228     6.49296
      H    9    0.18884      0.00000     0.80408    0.00709     0.81116
      H   10    0.18285      0.00000     0.81305    0.00411     0.81715
      C   11    0.78283      1.99950     3.14556    0.07211     5.21717
      O   12   -0.79060      1.99975     6.78151    0.00933     8.79060
      O   13   -0.78567      1.99976     6.77685    0.00906     8.78567
     Br   14    0.00710     27.99919     6.97515    0.01856    34.99290
      C   15   -0.11954      1.99875     4.09888    0.02192     6.11954
      C   16   -0.16338      1.99898     4.14800    0.01639     6.16338
      H   17    0.16997      0.00000     0.82460    0.00543     0.83003
      C   18   -0.18622      1.99891     4.17075    0.01655     6.18622
      H   19    0.17899      0.00000     0.81780    0.00321     0.82101
      N   20   -0.75781      1.99944     5.73589    0.02248     7.75781
      H   21    0.30586      0.00000     0.68790    0.00624     0.69414
      H   22    0.30715      0.00000     0.68676    0.00609     0.69285
 =======================================================================
   * Total *   -1.00000     51.98895    69.68356    0.32749   122.00000

 ******   16 imaginary frequencies (negative Signs) ******

                      1                      2                      3
                      A                      A                      A
 Frequencies --  -1557.4359             -1429.0314             -1372.3936
 Red. masses --      1.0390                 1.0696                 1.0988
 Frc consts  --      1.4849                 1.2870                 1.2193
 IR Inten    --     51.2984                59.7459                 2.3809

                      4                      5                      6
                      A                      A                      A
 Frequencies --  -1328.4816             -1254.5767             -1239.0158
 Red. masses --      1.1209                 1.0278                 1.0413
 Frc consts  --      1.1655                 0.9531                 0.9418
 IR Inten    --    257.3665                 4.1867                 1.0832

                      7                      8                      9
                      A                      A                      A
 Frequencies --  -1134.2914              -954.0793              -915.7989
 Red. masses --      1.0342                 1.0934                 1.0932
 Frc consts  --      0.7840                 0.5864                 0.5402
 IR Inten    --      0.5853                 1.3049                10.3474

                     10                     11                     12
                      A                      A                      A
 Frequencies --   -889.0364              -827.1716              -721.0406
 Red. masses --      1.0835                 1.1020                 1.0402
 Frc consts  --      0.5046                 0.4442                 0.3186
 IR Inten    --     10.7411                 1.1401                 5.7051

                     13                     14                     15
                      A                      A                      A
 Frequencies --   -602.4694              -430.5365              -283.0398
 Red. masses --      1.1405                 1.3978                 2.3100
 Frc consts  --      0.2439                 0.1527                 0.1090
 IR Inten    --      3.7258                 1.8496                 2.8454

                     16                     17                     18
                      A                      A                      A
 Frequencies --   -190.3876                77.9925               106.7475
 Red. masses --      3.1993                10.3950                 9.0608
 Frc consts  --      0.0683                 0.0373                 0.0608
 IR Inten    --      3.4870                 0.9559                 2.8352

                     19                     20                     21
                      A                      A                      A
 Frequencies --    160.5431               181.3515               220.6724
 Red. masses --      9.0179                 8.7063                12.0310
 Frc consts  --      0.1369                 0.1687                 0.3452
 IR Inten    --      6.5130                 4.4372                 7.5009

                     22                     23                     24
                      A                      A                      A
 Frequencies --    285.5863               362.6525               400.7274
 Red. masses --      7.5983                 8.9524                 6.2098
 Frc consts  --      0.3651                 0.6937                 0.5875
 IR Inten    --      1.3744                 6.9911                15.9747

                     25                     26                     27
                      A                      A                      A
 Frequencies --    487.2378               524.9135               549.8901
 Red. masses --      4.5977                10.1838                 3.7097
 Frc consts  --      0.6431                 1.6532                 0.6609
 IR Inten    --      8.0807                 0.0926                 2.9161

                     28                     29                     30
                      A                      A                      A
 Frequencies --    609.7918               673.2606               698.0802
 Red. masses --      5.7694                 3.3369                 7.7061
 Frc consts  --      1.2640                 0.8912                 2.2126
 IR Inten    --      2.9446                 3.4979                19.3181

                     31                     32                     33
                      A                      A                      A
 Frequencies --    748.7328               795.6740               810.3297
 Red. masses --      3.4408                 5.4352                 5.2882
 Frc consts  --      1.1365                 2.0274                 2.0459
 IR Inten    --      4.3385                 3.2727                 4.5258

                     34                     35                     36
                      A                      A                      A
 Frequencies --    822.6219               838.1415               893.1873
 Red. masses --      3.0122                 2.1438                 3.1178
 Frc consts  --      1.2010                 0.8873                 1.4655
 IR Inten    --     20.5421                 6.2856                45.1160

                     37                     38                     39
                      A                      A                      A
 Frequencies --    906.9925               921.3598              1001.7709
 Red. masses --      3.9550                 1.3896                 2.3462
 Frc consts  --      1.9169                 0.6950                 1.3872
 IR Inten    --      5.8621                17.4234                39.4602

                     40                     41                     42
                      A                      A                      A
 Frequencies --   1047.1909              1078.2791              1128.3995
 Red. masses --      3.1278                 3.7597                 3.1347
 Frc consts  --      2.0209                 2.5755                 2.3516
 IR Inten    --     56.5150                10.0396                 6.3507

                     43                     44                     45
                      A                      A                      A
 Frequencies --   1207.4384              1238.5323              1382.4970
 Red. masses --      6.9241                 6.1895                 8.7518
 Frc consts  --      5.9476                 5.5939                 9.8554
 IR Inten    --      5.5404                 0.6315                 0.3140

                     46                     47                     48
                      A                      A                      A
 Frequencies --   1428.1849              1459.9452              1471.4060
 Red. masses --      9.8217                12.6066                 8.3640
 Frc consts  --     11.8033                15.8315                10.6692
 IR Inten    --    101.9940               378.4162                14.8793

                     49                     50                     51
                      A                      A                      A
 Frequencies --   1644.3761              1717.7259              1718.5974
 Red. masses --     10.9374                10.9170                11.0004
 Frc consts  --     17.4247                18.9785                19.1429
 IR Inten    --      0.5653               211.4660               220.1908

                     52                     53                     54
                      A                      A                      A
 Frequencies --   4370.6922              4427.6157              4547.9109
 Red. masses --      1.0878                 1.0605                 1.1068
 Frc consts  --     12.2439                12.2487                13.4877
 IR Inten    --      9.4300                 9.0273                 8.7988

                     55                     56                     57
                      A                      A                      A
 Frequencies --   5021.0543              5022.5845              5032.5927
 Red. masses --      1.0879                 1.0878                 1.0911
 Frc consts  --     16.1589                16.1683                16.2812
 IR Inten    --      0.0090                 0.2859                 0.0230

                     58                     59                     60
                      A                      A                      A
 Frequencies --   5038.0973              5111.2645              5244.6155
 Red. masses --      1.0907                 1.0509                 1.0939
 Frc consts  --     16.3106                16.1762                17.7279
 IR Inten    --      0.3856                 2.7113                 1.8555

 - Thermochemistry -
 -------------------
 Temperature   298.150 Kelvin.  Pressure   1.00000 Atm.
 Atom     1 has atomic number  6 and mass  12.00000

 Molecular mass:   241.98166 amu.
 Principal axes and moments of inertia in atomic units:
                           1         2         3
     Eigenvalues --   794.780949829.53974**********
           X            1.00000  -0.00069   0.00165
           Y            0.00079   0.99808  -0.06198
           Z           -0.00161   0.06198   0.99808
 This molecule is an asymmetric top.
 Rotational symmetry number  1.
 Warning -- assumption of classical behavior for rotation
           may cause significant error
 Rotational temperatures (Kelvin)      0.10898     0.00881     0.00856
 Rotational constants (GHZ):           2.27074     0.18360     0.17839
   16 imaginary frequencies ignored.
 Zero-point vibrational energy     439132.7 (Joules/Mol)
                                  104.95524 (Kcal/Mol)
 Warning -- explicit consideration of  12 degrees of freedom as
           vibrations may cause significant error
 Vibrational temperatures:    112.21   153.59   230.99   260.92   317.50
          (Kelvin)            410.89   521.78   576.56   701.03   755.23
                              791.17   877.35   968.67  1004.38  1077.26
                             1144.80  1165.88  1183.57  1205.90  1285.10
                             1304.96  1325.63  1441.32  1506.67  1551.40
                             1623.52  1737.23  1781.97  1989.10  2054.84
                             2100.54  2117.03  2365.89  2471.42  2472.68
                             6288.45  6370.35  6543.43  7224.18  7226.38
                             7240.78  7248.70  7353.97  7545.83

 Zero-point correction=                           0.167257 (Hartree/Particle)
 Thermal correction to Energy=                    0.176177
 Thermal correction to Enthalpy=                  0.177122
 Thermal correction to Gibbs Free Energy=         0.130778
 Sum of electronic and zero-point Energies=          -3125.813379
 Sum of electronic and thermal Energies=             -3125.804459
 Sum of electronic and thermal Enthalpies=           -3125.803514
 Sum of electronic and thermal Free Energies=        -3125.849858

                     E (Thermal)             CV                S
                      KCal/Mol        Cal/Mol-Kelvin    Cal/Mol-Kelvin
 Total                  110.553             33.329             97.539
 Electronic               0.000              0.000              0.000
 Translational            0.889              2.981             42.352
 Rotational               0.889              2.981             32.736
 Vibrational            108.776             27.367             22.451
 Vibration     1          0.599              1.964              3.941
 Vibration     2          0.606              1.944              3.327
 Vibration     3          0.622              1.891              2.543
 Vibration     4          0.630              1.865              2.314
 Vibration     5          0.647              1.810              1.954
 Vibration     6          0.683              1.700              1.500
 Vibration     7          0.737              1.549              1.111
 Vibration     8          0.767              1.469              0.960
 Vibration     9          0.843              1.278              0.691
 Vibration    10          0.880              1.195              0.599
 Vibration    11          0.905              1.140              0.544
 Vibration    12          0.969              1.011              0.433

 Normal termination of Gaussian 16 at Mon Mar  6 10:37:01 2023.
