 Gaussian 16, Revision C.01,
 Gaussian 16:  ES64L-G16RevC.01  3-Jul-2019

 ----------------------------------------------------------------------
 #p pop=(regular,nbo,savenbos) freq=noraman def2svp empiricaldispersion
 =gd3bj output=wfx pbe1pbe
 ----------------------------------------------------------------------

 ----------------------------------------
 NAPYOV_Complex_4_Ligand_0_ON_Cu_oriented
 ----------------------------------------
 Symbolic Z-matrix:
 Charge = -1 Multiplicity = 1

                         Standard orientation:
 ---------------------------------------------------------------------
 Center     Atomic      Atomic             Coordinates (Angstroms)
 Number     Number       Type             X           Y           Z
 ---------------------------------------------------------------------
      1          6           0       -3.310445   -0.458978   -0.282747
      2          8           0       -3.882289   -1.511238   -0.631612
      3          8           0       -3.928872    0.484336    0.290572
      4          7           0       -1.373896    1.715563    0.729529
      5          1           0       -0.891594    2.015549    1.427370
      6          1           0       -1.114421    2.186542    0.008171
      7          6           0       -1.004649    0.314018    0.502598
      8          1           0       -1.217975   -0.181224    1.321490
      9          6           0       -1.827964   -0.278963   -0.610818
     10          1           0       -1.750849    0.292200   -1.390708
     11          1           0       -1.455050   -1.144941   -0.843770
     12          6           0        3.197278   -0.200099   -0.119968
     13          6           0        2.541398    0.719756   -0.910662
     14          1           0        2.997839    1.212312   -1.554147
     15          6           0        1.174086    0.884307   -0.712516
     16          1           0        0.706705    1.495857   -1.235055
     17          6           0        0.496343    0.151759    0.250479
     18          6           0        2.568488   -0.940440    0.823816
     19          9           0        4.534737   -0.378467   -0.315319
     20          6           0        1.201903   -0.765003    1.014808
     21          1           0        0.758196   -1.266684    1.660423
     22          1           0        3.042446   -1.555268    1.335777
 ---------------------------------------------------------------------

 SCF Done:  E(RPBE1PBE) =  -652.097845531     A.U. after   16 cycles

 The electronic state is 1-A.
 Alpha  occ. eigenvalues --  -24.68919 -18.91768 -18.90862 -14.20954 -10.21901
 Alpha  occ. eigenvalues --  -10.13733 -10.13328 -10.13313 -10.13242 -10.12950
 Alpha  occ. eigenvalues --  -10.11503 -10.08976 -10.03459  -1.13954  -0.81693
 Alpha  occ. eigenvalues --   -0.80725  -0.78830  -0.70825  -0.69917  -0.68668
 Alpha  occ. eigenvalues --   -0.62498  -0.57472  -0.54745  -0.50859  -0.48117
 Alpha  occ. eigenvalues --   -0.42779  -0.41867  -0.40098  -0.39174  -0.38105
 Alpha  occ. eigenvalues --   -0.37597  -0.34201  -0.33248  -0.31878  -0.29297
 Alpha  occ. eigenvalues --   -0.28159  -0.27234  -0.25398  -0.24189  -0.21316
 Alpha  occ. eigenvalues --   -0.18553  -0.17736  -0.16954  -0.15633  -0.11494
 Alpha  occ. eigenvalues --   -0.03099  -0.02729  -0.00270
 Alpha virt. eigenvalues --    0.07743   0.10243   0.18568   0.20465   0.21361
 Alpha virt. eigenvalues --    0.23798   0.24459   0.25222   0.25557   0.28030
 Alpha virt. eigenvalues --    0.28327   0.31531   0.32345   0.32659   0.35875

 Mulliken charges:
               1
     1  C    0.043078
     2  O   -0.433444
     3  O   -0.442274
     4  N   -0.047459
     5  H    0.021243
     6  H    0.018369
     7  C    0.060452
     8  H   -0.054261
     9  C    0.199957
    10  H   -0.062804
    11  H   -0.072861
    12  C    0.308635
    13  C    0.022526
    14  H   -0.114545
    15  C    0.098197
    16  H   -0.119327
    17  C   -0.052848
    18  C    0.021600
    19  F   -0.254977
    20  C    0.086720
    21  H   -0.112018
    22  H   -0.113959
 Sum of Mulliken charges =  -1.00000

 Dipole moment (field-independent basis, Debye):
    X=             15.6447    Y=              2.4214    Z=              0.6692  Tot=             15.8451
 Quadrupole moment (field-independent basis, Debye-Ang):
   XX=           -164.8047   YY=            -81.2248   ZZ=            -73.9125
   XY=             -6.4544   XZ=             -0.3139   YZ=             -7.4381

  Exact polarizability:     141.237      -3.423      85.587      -3.426      -8.953      77.148
 Approx polarizability:     190.788      -8.325     141.248      -8.635     -19.178     124.792

 Summary of Natural Population Analysis:

                                       Natural Population
                Natural  -----------------------------------------------
    Atom  No    Charge         Core      Valence    Rydberg      Total
 -----------------------------------------------------------------------
      C    1    0.78381      1.99952     3.14398    0.07269     5.21619
      O    2   -0.78920      1.99975     6.77995    0.00950     8.78920
      O    3   -0.79163      1.99976     6.78290    0.00897     8.79163
      N    4   -0.75587      1.99943     5.73377    0.02267     7.75587
      H    5    0.30681      0.00000     0.68700    0.00619     0.69319
      H    6    0.30395      0.00000     0.68971    0.00634     0.69605
      C    7    0.00169      1.99898     3.97598    0.02334     5.99831
      H    8    0.18153      0.00000     0.81313    0.00533     0.81847
      C    9   -0.49537      1.99892     4.47434    0.02211     6.49537
      H   10    0.18063      0.00000     0.81514    0.00423     0.81937
      H   11    0.18754      0.00000     0.80548    0.00698     0.81246
      C   12    0.41287      1.99843     3.56123    0.02748     5.58713
      C   13   -0.24663      1.99898     4.23176    0.01588     6.24663
      H   14    0.17869      0.00000     0.81793    0.00339     0.82131
      C   15   -0.16351      1.99898     4.14859    0.01594     6.16351
      H   16    0.16914      0.00000     0.82574    0.00512     0.83086
      C   17   -0.03471      1.99899     4.01655    0.01917     6.03471
      C   18   -0.25450      1.99895     4.23963    0.01591     6.25450
      F   19   -0.37226      1.99991     7.36774    0.00461     9.37226
      C   20   -0.15622      1.99898     4.14229    0.01495     6.15622
      H   21    0.17281      0.00000     0.82383    0.00336     0.82719
      H   22    0.18044      0.00000     0.81598    0.00358     0.81956
 =======================================================================
   * Total *   -1.00000     25.98958    69.69267    0.31776    96.00000

 ******   16 imaginary frequencies (negative Signs) ******

                      1                      2                      3
                      A                      A                      A
 Frequencies --  -1559.1918             -1436.4167             -1384.5537
 Red. masses --      1.0394                 1.0710                 1.1002
 Frc consts  --      1.4888                 1.3019                 1.2426
 IR Inten    --     49.3013                72.1818                 0.7503

                      4                      5                      6
                      A                      A                      A
 Frequencies --  -1322.2938             -1263.9518             -1258.5327
 Red. masses --      1.1186                 1.0314                 1.0460
 Frc consts  --      1.1523                 0.9709                 0.9762
 IR Inten    --    243.8262                 6.3049                 1.5725

                      7                      8                      9
                      A                      A                      A
 Frequencies --  -1120.4071              -962.5709              -944.9811
 Red. masses --      1.0344                 1.0850                 1.0936
 Frc consts  --      0.7651                 0.5923                 0.5754
 IR Inten    --      0.4365                 3.0756                 2.7144

                     10                     11                     12
                      A                      A                      A
 Frequencies --   -935.5830              -840.8667              -762.4391
 Red. masses --      1.0905                 1.0910                 1.0443
 Frc consts  --      0.5624                 0.4545                 0.3577
 IR Inten    --      9.1560                 3.6956                 9.1294

                     13                     14                     15
                      A                      A                      A
 Frequencies --   -609.5331              -425.6215              -253.9465
 Red. masses --      1.1400                 1.3970                 2.5571
 Frc consts  --      0.2496                 0.1491                 0.0972
 IR Inten    --      3.3417                 1.5228                 1.2699

                     16                     17                     18
                      A                      A                      A
 Frequencies --   -130.4792                88.9190               139.3705
 Red. masses --      3.4053                 8.7412                 9.4730
 Frc consts  --      0.0342                 0.0407                 0.1084
 IR Inten    --      6.4250                 0.4623                 4.2654

                     19                     20                     21
                      A                      A                      A
 Frequencies --    190.9106               210.3674               263.5460
 Red. masses --      9.0411                 8.5265                 8.0682
 Frc consts  --      0.1941                 0.2223                 0.3302
 IR Inten    --      1.8742                 6.8070                 8.8084

                     22                     23                     24
                      A                      A                      A
 Frequencies --    330.3406               423.4228               527.3182
 Red. masses --      7.1679                 7.8273                 9.9289
 Frc consts  --      0.4609                 0.8268                 1.6267
 IR Inten    --      1.1308                 0.3470                 0.0351

                     25                     26                     27
                      A                      A                      A
 Frequencies --    531.1393               564.6207               608.8518
 Red. masses --      3.5511                 3.4294                 7.4427
 Frc consts  --      0.5902                 0.6441                 1.6256
 IR Inten    --      6.1128                 6.0908                53.2997

                     28                     29                     30
                      A                      A                      A
 Frequencies --    652.5363               691.2698               721.8453
 Red. masses --      5.2213                 5.0451                 8.9235
 Frc consts  --      1.3099                 1.4204                 2.7395
 IR Inten    --      3.4433                 7.6441                 2.7678

                     31                     32                     33
                      A                      A                      A
 Frequencies --    772.7220               801.9254               808.6873
 Red. masses --      2.9998                 5.1087                 6.9306
 Frc consts  --      1.0553                 1.9356                 2.6704
 IR Inten    --      6.2363                 9.8048                 3.1154

                     34                     35                     36
                      A                      A                      A
 Frequencies --    837.9374               866.6435               912.4264
 Red. masses --      2.2606                 2.7880                 3.8513
 Frc consts  --      0.9352                 1.2337                 1.8891
 IR Inten    --      4.9857                 2.9166                 4.0865

                     37                     38                     39
                      A                      A                      A
 Frequencies --    924.1710               933.6315               994.7612
 Red. masses --      3.3753                 1.4026                 2.5261
 Frc consts  --      1.6985                 0.7203                 1.4728
 IR Inten    --     36.3891                16.9708                55.5831

                     40                     41                     42
                      A                      A                      A
 Frequencies --   1060.0861              1137.2451              1160.6315
 Red. masses --      1.9412                 4.0190                 4.9900
 Frc consts  --      1.2853                 3.0625                 3.9604
 IR Inten    --     22.2244                27.3612                 9.6681

                     43                     44                     45
                      A                      A                      A
 Frequencies --   1232.5915              1269.2893              1381.6287
 Red. masses --      6.0742                 7.7612                 8.9636
 Frc consts  --      5.4372                 7.3672                10.0813
 IR Inten    --     15.4627                45.4400                 6.6108

                     46                     47                     48
                      A                      A                      A
 Frequencies --   1447.5237              1455.0542              1501.5712
 Red. masses --     12.7591                 9.8730                 8.7591
 Frc consts  --     15.7514                12.3157                11.6359
 IR Inten    --    436.4071                53.5183                27.0259

                     49                     50                     51
                      A                      A                      A
 Frequencies --   1645.1188              1733.2234              1753.0529
 Red. masses --     11.1553                12.1107                10.1010
 Frc consts  --     17.7880                21.4353                18.2897
 IR Inten    --     15.0347               447.6974                13.5551

                     52                     53                     54
                      A                      A                      A
 Frequencies --   4355.3328              4413.3882              4534.3857
 Red. masses --      1.0879                 1.0604                 1.1069
 Frc consts  --     12.1581                12.1693                13.4091
 IR Inten    --     10.0709                10.3663                10.0998

                     55                     56                     57
                      A                      A                      A
 Frequencies --   5026.6586              5029.3544              5040.0915
 Red. masses --      1.0878                 1.0880                 1.0909
 Frc consts  --     16.1948                16.2140                16.3271
 IR Inten    --      0.2419                 0.3463                 0.4293

                     58                     59                     60
                      A                      A                      A
 Frequencies --   5040.6758              5112.4503              5244.0434
 Red. masses --      1.0907                 1.0510                 1.0938
 Frc consts  --     16.3283                16.1846                17.7217
 IR Inten    --      0.3483                 2.0093                 1.3983

 - Thermochemistry -
 -------------------
 Temperature   298.150 Kelvin.  Pressure   1.00000 Atm.
 Atom     1 has atomic number  6 and mass  12.00000

 Molecular mass:   182.06173 amu.
 Principal axes and moments of inertia in atomic units:
                           1         2         3
     Eigenvalues --   781.934145395.281895622.46155
           X            1.00000  -0.00155   0.00157
           Y            0.00166   0.99718  -0.07506
           Z           -0.00145   0.07506   0.99718
 This molecule is an asymmetric top.
 Rotational symmetry number  1.
 Warning -- assumption of classical behavior for rotation
           may cause significant error
 Rotational temperatures (Kelvin)      0.11077     0.01605     0.01540
 Rotational constants (GHZ):           2.30805     0.33450     0.32099
   16 imaginary frequencies ignored.
 Zero-point vibrational energy     444835.9 (Joules/Mol)
                                  106.31834 (Kcal/Mol)
 Warning -- explicit consideration of  11 degrees of freedom as
           vibrations may cause significant error
 Vibrational temperatures:    127.93   200.52   274.68   302.67   379.18
          (Kelvin)            475.29   609.21   758.69   764.19   812.36
                              876.00   938.85   994.58  1038.57  1111.77
                             1153.79  1163.52  1205.60  1246.91  1312.78
                             1329.68  1343.29  1431.24  1525.23  1636.24
                             1669.89  1773.42  1826.22  1987.86  2082.66
                             2093.50  2160.43  2366.96  2493.72  2522.25
                             6266.35  6349.88  6523.97  7232.24  7236.12
                             7251.57  7252.41  7355.68  7545.01

 Zero-point correction=                           0.169429 (Hartree/Particle)
 Thermal correction to Energy=                    0.177719
 Thermal correction to Enthalpy=                  0.178663
 Thermal correction to Gibbs Free Energy=         0.134742
 Sum of electronic and zero-point Energies=           -651.928416
 Sum of electronic and thermal Energies=              -651.920127
 Sum of electronic and thermal Enthalpies=            -651.919183
 Sum of electronic and thermal Free Energies=         -651.963103

                     E (Thermal)             CV                S
                      KCal/Mol        Cal/Mol-Kelvin    Cal/Mol-Kelvin
 Total                  111.520             31.858             92.438
 Electronic               0.000              0.000              0.000
 Translational            0.889              2.981             41.504
 Rotational               0.889              2.981             31.540
 Vibrational            109.743             25.896             19.395
 Vibration     1          0.602              1.957              3.684
 Vibration     2          0.615              1.914              2.812
 Vibration     3          0.634              1.852              2.219
 Vibration     4          0.643              1.825              2.040
 Vibration     5          0.670              1.740              1.638
 Vibration     6          0.713              1.615              1.258
 Vibration     7          0.786              1.419              0.880
 Vibration     8          0.882              1.190              0.593
 Vibration     9          0.886              1.181              0.585
 Vibration    10          0.920              1.108              0.515
 Vibration    11          0.968              1.013              0.435

 Normal termination of Gaussian 16 at Mon Mar  6 10:35:31 2023.
