 Gaussian 16, Revision C.01,
 Gaussian 16:  ES64L-G16RevC.01  3-Jul-2019

 ----------------------------------------------------------------------
 #p pop=(regular,nbo,savenbos) freq=noraman def2svp empiricaldispersion
 =gd3bj output=wfx pbe1pbe
 ----------------------------------------------------------------------

 ----------------------------------------
 NARPOM_Complex_4_Ligand_1_NN_Cu_oriented
 ----------------------------------------
 Symbolic Z-matrix:
 Charge = -1 Multiplicity = 1

                         Standard orientation:
 ---------------------------------------------------------------------
 Center     Atomic      Atomic             Coordinates (Angstroms)
 Number     Number       Type             X           Y           Z
 ---------------------------------------------------------------------
      1         16           0        1.892987   -1.667548    0.891384
      2          7           0       -0.879432   -0.701372    0.122651
      3          7           0       -3.087511   -1.396799   -0.474440
      4          7           0       -1.309796   -2.984438   -0.519424
      5          7           0       -3.461145   -3.585808   -0.982449
      6          1           0       -3.221638   -4.405471   -1.085552
      7          1           0       -4.285592   -3.362663   -1.079899
      8          7           0        0.807457   -2.429131    0.022148
      9          6           0       -1.768804    1.892824    0.324815
     10          1           0       -0.878248    1.641373    0.416840
     11          6           0       -2.066728    3.242880    0.508423
     12          1           0       -1.438744    3.905031    0.681257
     13          6           0       -3.520696    3.474212    0.387504
     14          1           0       -3.853992    4.313178    0.608131
     15          6           0       -4.394756    2.524219   -0.030950
     16          6           0       -4.013233    1.273984   -0.166340
     17          1           0       -4.626635    0.611790   -0.389956
     18          6           0       -2.627338    0.951284    0.037812
     19          6           0       -2.212070   -0.523585   -0.124979
     20          6           0       -2.581262   -2.690286   -0.679634
     21          6           0       -0.401090   -1.979783   -0.099291
     22          6           0        2.644315    0.038738   -1.147609
     23          6           0        2.139677   -0.016700    0.160258
     24          6           0        1.897631    1.074183    1.011117
     25          6           0        2.172832    2.317414    0.412478
     26          6           0        2.655732    2.502270   -0.838081
     27          6           0        2.863019    1.268594   -1.598813
     28          1           0        3.172670    1.353110   -2.471836
     29          6           0        2.888372    3.811757   -1.536561
     30          1           0        2.315124    3.870039   -2.303852
     31          1           0        2.693713    4.533209   -0.934805
     32          6           0        2.809020   -1.133961   -2.083592
     33          1           0        2.172590   -1.816810   -1.857295
     34          1           0        3.698557   -1.486268   -2.003038
     35          1           0        2.660148   -0.845880   -2.987639
     36          8           0        3.088123   -2.440699    0.663000
     37          8           0        1.438635   -1.565209    2.273683
     38          6           0        1.282906    1.132288    2.388702
     39          1           0        0.999918    2.030537    2.574848
     40          1           0        1.932585    0.859142    3.041435
     41          1           0        2.007961    3.078197    0.919302
     42          1           0        3.805601    3.866953   -1.816340
     43          1           0        0.525131    0.542961    2.425330
     44          1           0       -5.273164    2.760438   -0.223505
 ---------------------------------------------------------------------

 SCF Done:  E(RPBE1PBE) =  -1516.47765922     A.U. after   15 cycles

 The electronic state is 1-A.
 Alpha  occ. eigenvalues --  -89.05839 -19.02844 -19.01911 -14.27674 -14.24222
 Alpha  occ. eigenvalues --  -14.23091 -14.22371 -14.20561 -10.20217 -10.18633
 Alpha  occ. eigenvalues --  -10.17432 -10.13746 -10.13638 -10.13118 -10.13050
 Alpha  occ. eigenvalues --  -10.12903 -10.12651 -10.12326 -10.11103 -10.11002
 Alpha  occ. eigenvalues --  -10.10825 -10.10290 -10.10157 -10.10030 -10.07371
 Alpha  occ. eigenvalues --  -10.07068  -8.02663  -5.96845  -5.96779  -5.96728
 Alpha  occ. eigenvalues --   -0.97626  -0.91442  -0.85615  -0.84889  -0.80113
 Alpha  occ. eigenvalues --   -0.78323  -0.78113  -0.74077  -0.72386  -0.71431
 Alpha  occ. eigenvalues --   -0.70578  -0.68767  -0.66448  -0.64216  -0.62369
 Alpha  occ. eigenvalues --   -0.60941  -0.57132  -0.56661  -0.54629  -0.52386
 Alpha  occ. eigenvalues --   -0.51203  -0.50150  -0.49190  -0.48739  -0.45555
 Alpha  occ. eigenvalues --   -0.44006  -0.40741  -0.40371  -0.39779  -0.38477
 Alpha  occ. eigenvalues --   -0.37594  -0.36621  -0.36208  -0.35377  -0.34679
 Alpha  occ. eigenvalues --   -0.34570  -0.34377  -0.33938  -0.33502  -0.33225
 Alpha  occ. eigenvalues --   -0.32152  -0.31624  -0.31102  -0.30115  -0.29361
 Alpha  occ. eigenvalues --   -0.28699  -0.28354  -0.26324  -0.25906  -0.25212
 Alpha  occ. eigenvalues --   -0.24713  -0.24134  -0.23198  -0.22325  -0.19471
 Alpha  occ. eigenvalues --   -0.17983  -0.17633  -0.16918  -0.15084  -0.15040
 Alpha  occ. eigenvalues --   -0.14561  -0.13784  -0.13290  -0.12628  -0.12072
 Alpha  occ. eigenvalues --   -0.11083  -0.09330
 Alpha virt. eigenvalues --    0.07121   0.09818   0.10716   0.11889   0.15016
 Alpha virt. eigenvalues --    0.15869   0.16761   0.18930   0.19708   0.20155
 Alpha virt. eigenvalues --    0.21256   0.22718   0.23145   0.23265   0.23973

 Mulliken charges:
               1
     1  S    0.843249
     2  N   -0.306756
     3  N   -0.232687
     4  N   -0.250849
     5  N    0.185370
     6  H    0.029616
     7  H    0.025546
     8  N   -0.333291
     9  C    0.082157
    10  H   -0.118820
    11  C    0.108809
    12  H   -0.117847
    13  C    0.069964
    14  H   -0.108203
    15  C    0.110169
    16  C    0.105737
    17  H   -0.132675
    18  C    0.056528
    19  C    0.058893
    20  C   -0.021727
    21  C    0.157248
    22  C   -0.105014
    23  C   -0.149926
    24  C   -0.149160
    25  C    0.002179
    26  C   -0.126561
    27  C   -0.005826
    28  H   -0.159304
    29  C    0.302152
    30  H   -0.012118
    31  H   -0.048324
    32  C    0.373995
    33  H   -0.018572
    34  H   -0.023321
    35  H   -0.051244
    36  O   -0.515063
    37  O   -0.508173
    38  C    0.381413
    39  H   -0.068298
    40  H   -0.026832
    41  H   -0.158391
    42  H   -0.022792
    43  H    0.000881
    44  H   -0.122131
 Sum of Mulliken charges =  -1.00000

 Dipole moment (field-independent basis, Debye):
    X=             -3.7835    Y=              7.3845    Z=             -3.6237  Tot=              9.0541
 Quadrupole moment (field-independent basis, Debye-Ang):
   XX=           -179.1779   YY=           -176.5022   ZZ=           -165.1838
   XY=             23.5002   XZ=             -5.7263   YZ=              8.8781

  Exact polarizability:     254.625       4.002     274.823      -1.541      12.658     167.006
 Approx polarizability:     375.345      -0.472     413.921       3.242      27.053     273.089

 Summary of Natural Population Analysis:

                                       Natural Population
                Natural  -----------------------------------------------
    Atom  No    Charge         Core      Valence    Rydberg      Total
 -----------------------------------------------------------------------
      S    1    2.29234      9.99810     3.47913    0.23044    13.70766
      N    2   -0.68972      1.99925     5.67579    0.01468     7.68972
      N    3   -0.68069      1.99917     5.66661    0.01490     7.68069
      N    4   -0.65092      1.99920     5.63635    0.01537     7.65092
      N    5   -0.68837      1.99919     5.67092    0.01825     7.68837
      H    6    0.34146      0.00000     0.65303    0.00551     0.65854
      H    7    0.33981      0.00000     0.65474    0.00546     0.66019
      N    8   -0.90263      1.99914     5.88492    0.01857     7.90263
      C    9   -0.16518      1.99881     4.15200    0.01437     6.16518
      H   10    0.19310      0.00000     0.79974    0.00716     0.80690
      C   11   -0.16053      1.99914     4.14740    0.01399     6.16053
      H   12    0.16248      0.00000     0.83487    0.00265     0.83752
      C   13   -0.16638      1.99910     4.15258    0.01470     6.16638
      H   14    0.14992      0.00000     0.84684    0.00324     0.85008
      C   15   -0.21381      1.99903     4.20040    0.01438     6.21381
      C   16   -0.12488      1.99902     4.10972    0.01614     6.12488
      H   17    0.17922      0.00000     0.81584    0.00494     0.82078
      C   18   -0.05475      1.99887     4.03744    0.01844     6.05475
      C   19    0.49265      1.99911     3.46650    0.04175     5.50735
      C   20    0.66149      1.99919     3.29945    0.03987     5.33851
      C   21    0.67192      1.99916     3.28417    0.04475     5.32808
      C   22    0.00048      1.99875     3.98245    0.01832     5.99952
      C   23   -0.26088      1.99868     4.23165    0.03054     6.26088
      C   24    0.02322      1.99887     3.95914    0.01877     5.97678
      C   25   -0.21571      1.99883     4.20080    0.01608     6.21571
      C   26    0.00113      1.99902     3.98465    0.01521     5.99887
      C   27   -0.19307      1.99883     4.17800    0.01624     6.19307
      H   28    0.15815      0.00000     0.83833    0.00351     0.84185
      C   29   -0.55878      1.99913     4.55061    0.00903     6.55878
      H   30    0.19573      0.00000     0.80153    0.00274     0.80427
      H   31    0.18675      0.00000     0.81045    0.00280     0.81325
      C   32   -0.55444      1.99910     4.54588    0.00946     6.55444
      H   33    0.22452      0.00000     0.77131    0.00418     0.77548
      H   34    0.20387      0.00000     0.79318    0.00295     0.79613
      H   35    0.18075      0.00000     0.81649    0.00276     0.81925
      O   36   -0.97924      1.99977     6.97063    0.00884     8.97924
      O   37   -0.97743      1.99978     6.96971    0.00795     8.97743
      C   38   -0.55449      1.99910     4.54652    0.00887     6.55449
      H   39    0.17414      0.00000     0.82294    0.00292     0.82586
      H   40    0.20726      0.00000     0.78964    0.00310     0.79274
      H   41    0.16145      0.00000     0.83490    0.00365     0.83855
      H   42    0.19242      0.00000     0.80485    0.00273     0.80758
      H   43    0.23191      0.00000     0.76406    0.00404     0.76809
      H   44    0.16576      0.00000     0.83062    0.00362     0.83424
 =======================================================================
   * Total *   -1.00000     59.97535   133.26676    0.75789   194.00000

 ******   29 imaginary frequencies (negative Signs) ******

                      1                      2                      3
                      A                      A                      A
 Frequencies --  -1951.9560             -1791.4178             -1552.9219
 Red. masses --      1.1417                 1.0088                 1.0293
 Frc consts  --      2.5629                 1.9074                 1.4625
 IR Inten    --    206.2889                 0.9477                 1.5251

                      4                      5                      6
                      A                      A                      A
 Frequencies --  -1477.9523             -1408.5312             -1407.9230
 Red. masses --      1.0827                 1.0086                 1.0090
 Frc consts  --      1.3934                 1.1790                 1.1784
 IR Inten    --     64.0417                 0.2828                 0.1366

                      7                      8                      9
                      A                      A                      A
 Frequencies --  -1390.1937             -1384.6630             -1350.2321
 Red. masses --      1.0093                 1.0495                 1.0612
 Frc consts  --      1.1492                 1.1856                 1.1399
 IR Inten    --      0.3227                 1.3624                23.3394

                     10                     11                     12
                      A                      A                      A
 Frequencies --  -1339.5670             -1309.6275             -1214.2039
 Red. masses --      1.0351                 1.0314                 1.0190
 Frc consts  --      1.0944                 1.0423                 0.8851
 IR Inten    --      0.4297                 1.3337                 0.7823

                     13                     14                     15
                      A                      A                      A
 Frequencies --  -1168.6582             -1057.3565             -1024.1825
 Red. masses --      1.0381                 1.0793                 1.0577
 Frc consts  --      0.8354                 0.7110                 0.6537
 IR Inten    --      0.5544                 3.9485                 3.9954

                     16                     17                     18
                      A                      A                      A
 Frequencies --  -1006.3657             -1004.4837              -995.3038
 Red. masses --      1.0616                 1.0477                 1.0505
 Frc consts  --      0.6334                 0.6228                 0.6131
 IR Inten    --      3.6493                 4.4054                16.9901

                     19                     20                     21
                      A                      A                      A
 Frequencies --   -958.9072              -953.7208              -914.2263
 Red. masses --      1.0450                 1.0310                 1.0857
 Frc consts  --      0.5661                 0.5525                 0.5346
 IR Inten    --      3.1634                18.6155                 3.7821

                     22                     23                     24
                      A                      A                      A
 Frequencies --   -839.1305              -805.5541              -784.9307
 Red. masses --      1.1080                 1.0823                 1.1186
 Frc consts  --      0.4597                 0.4138                 0.4060
 IR Inten    --     18.1818                 0.9985                 0.6181

                     25                     26                     27
                      A                      A                      A
 Frequencies --   -758.7999              -686.3214              -465.1193
 Red. masses --      1.1140                 1.0653                 1.0443
 Frc consts  --      0.3779                 0.2956                 0.1331
 IR Inten    --      3.8979                26.1655               113.5083

                     28                     29                     30
                      A                      A                      A
 Frequencies --   -112.3774               -21.9064                11.4784
 Red. masses --      6.8031                 6.9621                11.0385
 Frc consts  --      0.0506                 0.0020                 0.0009
 IR Inten    --      1.1413                 0.1677                 0.7673

                     31                     32                     33
                      A                      A                      A
 Frequencies --     52.0572                70.3569               133.3352
 Red. masses --      8.8778                 7.5727                 5.8519
 Frc consts  --      0.0142                 0.0221                 0.0613
 IR Inten    --      1.0511                 0.7059                 0.2120

                     34                     35                     36
                      A                      A                      A
 Frequencies --    151.1989               169.7622               193.2599
 Red. masses --      9.5614                12.1100                 9.1781
 Frc consts  --      0.1288                 0.2056                 0.2020
 IR Inten    --      0.4554                 0.1400                 2.0898

                     37                     38                     39
                      A                      A                      A
 Frequencies --    206.4754               221.0897               270.7258
 Red. masses --     10.1088                 9.2437                 9.9702
 Frc consts  --      0.2539                 0.2662                 0.4305
 IR Inten    --      0.2810                 2.6870                 0.5675

                     40                     41                     42
                      A                      A                      A
 Frequencies --    277.1896               285.0132               302.4967
 Red. masses --      7.9052                 8.9070                 7.8286
 Frc consts  --      0.3579                 0.4263                 0.4221
 IR Inten    --      1.8666                 3.1131                 1.0508

                     43                     44                     45
                      A                      A                      A
 Frequencies --    332.9385               342.4770               351.5644
 Red. masses --      9.3837                 7.9157                10.2675
 Frc consts  --      0.6128                 0.5470                 0.7477
 IR Inten    --      1.4624                 0.2582                 0.2441

                     46                     47                     48
                      A                      A                      A
 Frequencies --    356.3133               398.1686               446.7770
 Red. masses --      1.1741                 6.4053                11.1084
 Frc consts  --      0.0878                 0.5983                 1.3064
 IR Inten    --      4.2290                 0.4727                21.1593

                     49                     50                     51
                      A                      A                      A
 Frequencies --    454.0298               460.2210               465.6249
 Red. masses --      4.6100                 3.5899                 8.7798
 Frc consts  --      0.5599                 0.4480                 1.1215
 IR Inten    --      2.7090                18.5662                 0.4993

                     52                     53                     54
                      A                      A                      A
 Frequencies --    472.8799               495.9889               496.4146
 Red. masses --      3.1895                 1.4983                 2.0890
 Frc consts  --      0.4202                 0.2172                 0.3033
 IR Inten    --     20.8519                14.1871                 4.5578

                     55                     56                     57
                      A                      A                      A
 Frequencies --    560.0294               569.1659               573.4251
 Red. masses --      7.8732                 8.2726                 9.3639
 Frc consts  --      1.4549                 1.5790                 1.8141
 IR Inten    --    119.2849                30.7916                26.1594

                     58                     59                     60
                      A                      A                      A
 Frequencies --    582.0000               588.1761               593.5600
 Red. masses --      4.6886                 4.1232                 8.0980
 Frc consts  --      0.9357                 0.8404                 1.6810
 IR Inten    --      9.2056                10.8437                25.5973

                     61                     62                     63
                      A                      A                      A
 Frequencies --    606.7273               651.2938               704.7383
 Red. masses --     10.4331                10.0671                 6.0124
 Frc consts  --      2.2628                 2.5160                 1.7593
 IR Inten    --     22.5282                25.6143                37.2965

                     64                     65                     66
                      A                      A                      A
 Frequencies --    710.8198               727.5164               729.1446
 Red. masses --      5.2394                 4.5360                 8.9705
 Frc consts  --      1.5597                 1.4145                 2.8099
 IR Inten    --      2.6718                 1.6151                 2.1448

                     67                     68                     69
                      A                      A                      A
 Frequencies --    730.3915               744.8546               764.3696
 Red. masses --      4.8847                 4.4640                10.2733
 Frc consts  --      1.5353                 1.4592                 3.5364
 IR Inten    --      2.3507                 2.0744                 9.9319

                     70                     71                     72
                      A                      A                      A
 Frequencies --    773.3991               793.3515               808.5858
 Red. masses --      7.7157                 5.7060                 4.4869
 Frc consts  --      2.7192                 2.1160                 1.7284
 IR Inten    --      6.6914                42.0390                14.3012

                     73                     74                     75
                      A                      A                      A
 Frequencies --    823.2517               863.0084               886.6205
 Red. masses --     10.5828                12.2109                 9.3616
 Frc consts  --      4.2259                 5.3583                 4.3359
 IR Inten    --     12.4269                23.0130                73.4578

                     76                     77                     78
                      A                      A                      A
 Frequencies --    941.9280               943.7581               960.0767
 Red. masses --      6.1394                 1.5778                 1.1131
 Frc consts  --      3.2093                 0.8280                 0.6045
 IR Inten    --     23.7131                47.2035                22.2700

                     79                     80                     81
                      A                      A                      A
 Frequencies --    992.7926              1004.1035              1008.2413
 Red. masses --      1.2022                 9.8664                 1.5785
 Frc consts  --      0.6981                 5.8609                 0.9454
 IR Inten    --      1.6536                48.6852                 8.9041

                     82                     83                     84
                      A                      A                      A
 Frequencies --   1009.6436              1016.2031              1027.0189
 Red. masses --      1.8674                 1.3685                 2.1609
 Frc consts  --      1.1216                 0.8327                 1.3429
 IR Inten    --      2.1019                 6.4602                 1.6974

                     85                     86                     87
                      A                      A                      A
 Frequencies --   1030.3893              1036.6753              1085.1581
 Red. masses --      6.1503                 1.1405                 8.1811
 Frc consts  --      3.8472                 0.7222                 5.6761
 IR Inten    --      1.7156                 3.5939                10.6893

                     88                     89                     90
                      A                      A                      A
 Frequencies --   1093.2524              1116.4438              1198.3855
 Red. masses --      8.3875                11.3414                10.3048
 Frc consts  --      5.9064                 8.3289                 8.7193
 IR Inten    --      4.7382                40.2532               139.0648

                     91                     92                     93
                      A                      A                      A
 Frequencies --   1219.6489              1236.8195              1283.6062
 Red. masses --     12.9079                13.2486                 7.7628
 Frc consts  --     11.3129                11.9407                 7.5359
 IR Inten    --    145.4139               234.7816                 4.8496

                     94                     95                     96
                      A                      A                      A
 Frequencies --   1311.3166              1386.2173              1398.3604
 Red. masses --     11.2662                 9.1119                18.1945
 Frc consts  --     11.4142                10.3163                20.9618
 IR Inten    --    169.6463                15.6154               202.6355

                     97                     98                     99
                      A                      A                      A
 Frequencies --   1418.5697              1463.7481              1483.7267
 Red. masses --      8.8800                 8.5036                11.9855
 Frc consts  --     10.5285                10.7346                15.5459
 IR Inten    --      2.9771                 7.9678               399.8073

                    100                    101                    102
                      A                      A                      A
 Frequencies --   1521.6524              1531.4478              1691.3721
 Red. masses --      9.6750                 9.0677                10.9902
 Frc consts  --     13.1987                12.5300                18.5240
 IR Inten    --     17.6868                 1.4483               487.5853

                    103                    104                    105
                      A                      A                      A
 Frequencies --   1697.1252              1713.1133              1763.6840
 Red. masses --     11.6627                12.0654                 9.7004
 Frc consts  --     19.7914                20.8624                17.7780
 IR Inten    --    949.1500               520.3690                17.3416

                    106                    107                    108
                      A                      A                      A
 Frequencies --   1812.3769              1847.7310              1927.9328
 Red. masses --     10.2404                11.1806                10.5234
 Frc consts  --     19.8182                22.4901                23.0456
 IR Inten    --     11.5180               642.3238                10.0979

                    109                    110                    111
                      A                      A                      A
 Frequencies --   4466.0649              4466.6474              4469.3993
 Red. masses --      1.0328                 1.0325                 1.0322
 Frc consts  --     12.1369                12.1369                12.1481
 IR Inten    --     17.6119                11.4716                15.9170

                    112                    113                    114
                      A                      A                      A
 Frequencies --   4668.6430              4670.3143              4672.0811
 Red. masses --      1.1067                 1.1067                 1.1065
 Frc consts  --     14.2117                14.2227                14.2312
 IR Inten    --      5.9941                 3.0486                 1.8215

                    115                    116                    117
                      A                      A                      A
 Frequencies --   4676.3480              4677.3980              4682.8832
 Red. masses --      1.1065                 1.1062                 1.1068
 Frc consts  --     14.2567                14.2587                14.3009
 IR Inten    --      5.8612                 3.0401                 2.8591

                    118                    119                    120
                      A                      A                      A
 Frequencies --   5014.3050              5017.7493              5021.0503
 Red. masses --      1.0885                 1.0867                 1.0881
 Frc consts  --     16.1249                16.1208                16.1628
 IR Inten    --      8.7460                 3.1153                 9.0590

                    121                    122                    123
                      A                      A                      A
 Frequencies --   5029.1230              5038.9061              5044.0073
 Red. masses --      1.0882                 1.0888                 1.0926
 Frc consts  --     16.2167                16.2880                16.3783
 IR Inten    --      8.9488                 2.3355                 6.8435

                    124                    125                    126
                      A                      A                      A
 Frequencies --   5069.4484              5761.1481              5977.6158
 Red. masses --      1.0900                 1.0426                 1.1064
 Frc consts  --     16.5050                20.3893                23.2926
 IR Inten    --      1.5177               118.9633                57.0644

 - Thermochemistry -
 -------------------
 Temperature   298.150 Kelvin.  Pressure   1.00000 Atm.
 Atom     1 has atomic number 16 and mass  31.97207

 Molecular mass:   368.11812 amu.
 Principal axes and moments of inertia in atomic units:
                           1         2         3
     Eigenvalues --  7688.374169864.89055**********
           X            0.99901   0.04285  -0.01183
           Y           -0.04276   0.99906   0.00768
           Z            0.01215  -0.00717   0.99990
 This molecule is an asymmetric top.
 Rotational symmetry number  1.
 Warning -- assumption of classical behavior for rotation
           may cause significant error
 Rotational temperatures (Kelvin)      0.01127     0.00878     0.00597
 Rotational constants (GHZ):           0.23474     0.18295     0.12429
   29 imaginary frequencies ignored.
 Zero-point vibrational energy     919915.8 (Joules/Mol)
                                  219.86516 (Kcal/Mol)
 Warning -- explicit consideration of  32 degrees of freedom as
           vibrations may cause significant error
 Vibrational temperatures:     16.51    74.90   101.23   191.84   217.54
          (Kelvin)            244.25   278.06   297.07   318.10   389.51
                              398.81   410.07   435.23   479.02   492.75
                              505.82   512.66   572.88   642.81   653.25
                              662.16   669.93   680.37   713.62   714.23
                              805.76   818.90   825.03   837.37   846.25
                              854.00   872.95   937.07  1013.96  1022.71
                             1046.73  1049.08  1050.87  1071.68  1099.76
                             1112.75  1141.46  1163.37  1184.48  1241.68
                             1275.65  1355.22  1357.86  1381.34  1428.41
                             1444.68  1450.63  1452.65  1462.09  1477.65
                             1482.50  1491.54  1561.30  1572.95  1606.31
                             1724.21  1754.80  1779.51  1846.82  1886.69
                             1994.46  2011.93  2041.01  2106.01  2134.75
                             2189.32  2203.41  2433.51  2441.78  2464.79
                             2537.55  2607.61  2658.47  2773.87  6425.67
                             6426.51  6430.47  6717.14  6719.54  6722.08
                             6728.22  6729.73  6737.62  7214.47  7219.42
                             7224.17  7235.79  7249.86  7257.20  7293.81
                             8289.01  8600.46

 Zero-point correction=                           0.350377 (Hartree/Particle)
 Thermal correction to Energy=                    0.367677
 Thermal correction to Enthalpy=                  0.368621
 Thermal correction to Gibbs Free Energy=         0.304452
 Sum of electronic and zero-point Energies=          -1516.127282
 Sum of electronic and thermal Energies=             -1516.109983
 Sum of electronic and thermal Enthalpies=           -1516.109038
 Sum of electronic and thermal Free Energies=        -1516.173207

                     E (Thermal)             CV                S
                      KCal/Mol        Cal/Mol-Kelvin    Cal/Mol-Kelvin
 Total                  230.721             71.163            135.054
 Electronic               0.000              0.000              0.000
 Translational            0.889              2.981             43.603
 Rotational               0.889              2.981             35.353
 Vibrational            228.943             65.201             56.098
 Vibration     1          0.593              1.987              7.737
 Vibration     2          0.596              1.977              4.738
 Vibration     3          0.598              1.968              4.143
 Vibration     4          0.613              1.920              2.897
 Vibration     5          0.619              1.901              2.657
 Vibration     6          0.625              1.880              2.438
 Vibration     7          0.635              1.849              2.196
 Vibration     8          0.641              1.831              2.075
 Vibration     9          0.648              1.809              1.950
 Vibration    10          0.674              1.727              1.592
 Vibration    11          0.678              1.716              1.551
 Vibration    12          0.683              1.701              1.503
 Vibration    13          0.694              1.669              1.403
 Vibration    14          0.715              1.610              1.246
 Vibration    15          0.722              1.591              1.201
 Vibration    16          0.728              1.572              1.159
 Vibration    17          0.732              1.562              1.138
 Vibration    18          0.764              1.474              0.969
 Vibration    19          0.806              1.368              0.806
 Vibration    20          0.812              1.352              0.784
 Vibration    21          0.818              1.338              0.765
 Vibration    22          0.823              1.326              0.750
 Vibration    23          0.830              1.310              0.730
 Vibration    24          0.852              1.259              0.668
 Vibration    25          0.852              1.258              0.667
 Vibration    26          0.916              1.118              0.524
 Vibration    27          0.925              1.098              0.506
 Vibration    28          0.930              1.089              0.498
 Vibration    29          0.939              1.070              0.482
 Vibration    30          0.945              1.057              0.470
 Vibration    31          0.951              1.045              0.461
 Vibration    32          0.965              1.018              0.438

 Normal termination of Gaussian 16 at Mon Mar  6 12:26:39 2023.
