 Gaussian 16, Revision C.01,
 Gaussian 16:  ES64L-G16RevC.01  3-Jul-2019

 ----------------------------------------------------------------------
 #p pop=(regular,nbo,savenbos) freq=noraman def2svp empiricaldispersion
 =gd3bj output=wfx pbe1pbe
 ----------------------------------------------------------------------

 ----------------------------------------
 NARYOU_Complex_6_Ligand_2_ON_Cu_oriented
 ----------------------------------------
 Symbolic Z-matrix:
 Charge = -1 Multiplicity = 1

                         Standard orientation:
 ---------------------------------------------------------------------
 Center     Atomic      Atomic             Coordinates (Angstroms)
 Number     Number       Type             X           Y           Z
 ---------------------------------------------------------------------
      1          7           0       -1.021855   -0.492923   -0.111330
      2          6           0        0.105906    0.428813   -0.435131
      3          6           0        0.018249    1.815742    0.199099
      4          6           0       -2.234716   -0.156443   -0.889491
      5          1           0        0.083181    0.564955   -1.375705
      6          1           0        0.773342    2.330483   -0.060947
      7          1           0       -0.775946    2.248647   -0.093901
      8          1           0        0.002082    1.731263    1.145101
      9          1           0       -2.912163   -0.798681   -0.715042
     10          1           0       -2.543733    0.705923   -0.636522
     11          8           0        1.414544   -1.555766   -0.189654
     12          8           0        2.462870    0.353848    0.061308
     13          6           0        1.432942   -0.285103   -0.139614
     14          6           0       -1.353966   -0.486612    1.336169
     15          1           0       -0.578884   -0.703013    1.839368
     16          1           0       -1.664822    0.375289    1.585950
     17          1           0       -2.033228   -1.129368    1.508229
     18          1           0       -2.026631   -0.158069   -1.816652
 ---------------------------------------------------------------------

 SCF Done:  E(RPBE1PBE) =  -400.832315495     A.U. after   14 cycles

 The electronic state is 1-A.
 Alpha  occ. eigenvalues --  -18.91636 -18.89861 -14.21458 -10.07835 -10.07112
 Alpha  occ. eigenvalues --  -10.06180 -10.06040 -10.02367  -0.81416  -0.77454
 Alpha  occ. eigenvalues --   -0.70275  -0.63466  -0.61609  -0.55184  -0.46632
 Alpha  occ. eigenvalues --   -0.36728  -0.36176  -0.34745  -0.31104  -0.29935
 Alpha  occ. eigenvalues --   -0.28291  -0.26541  -0.25533  -0.23978  -0.22340
 Alpha  occ. eigenvalues --   -0.20254  -0.17024  -0.15883  -0.06175  -0.02600
 Alpha  occ. eigenvalues --   -0.02185   0.00479
 Alpha virt. eigenvalues --    0.20320   0.24871   0.25036   0.26258   0.28224
 Alpha virt. eigenvalues --    0.29577   0.29789   0.31599   0.32564   0.33593
 Alpha virt. eigenvalues --    0.34639   0.35868   0.39849   0.42372   0.43087

 Mulliken charges:
               1
     1  N   -0.448507
     2  C   -0.034174
     3  C    0.233659
     4  C    0.339404
     5  H   -0.069306
     6  H   -0.052499
     7  H   -0.089222
     8  H   -0.053379
     9  H   -0.066104
    10  H   -0.093832
    11  O   -0.460410
    12  O   -0.412255
    13  C    0.109524
    14  C    0.344011
    15  H   -0.033544
    16  H   -0.090666
    17  H   -0.069312
    18  H   -0.053388
 Sum of Mulliken charges =  -1.00000

 Dipole moment (field-independent basis, Debye):
    X=             -8.3969    Y=              3.4478    Z=              0.2425  Tot=              9.0805
 Quadrupole moment (field-independent basis, Debye-Ang):
   XX=            -71.7748   YY=            -60.9893   ZZ=            -48.4290
   XY=              3.6066   XZ=             -0.3286   YZ=             -2.0154

  Exact polarizability:      66.337       2.133      61.737       1.193      -0.172      52.381
 Approx polarizability:      83.516       5.306      89.935       2.110       1.299      70.009

 Summary of Natural Population Analysis:

                                       Natural Population
                Natural  -----------------------------------------------
    Atom  No    Charge         Core      Valence    Rydberg      Total
 -----------------------------------------------------------------------
      N    1   -0.52183      1.99946     5.50705    0.01532     7.52183
      C    2   -0.08861      1.99889     4.06589    0.02383     6.08861
      C    3   -0.56811      1.99916     4.55676    0.01218     6.56811
      C    4   -0.31346      1.99910     4.30362    0.01075     6.31346
      H    5    0.16255      0.00000     0.83312    0.00432     0.83745
      H    6    0.19536      0.00000     0.79748    0.00717     0.80464
      H    7    0.15676      0.00000     0.83963    0.00362     0.84324
      H    8    0.17297      0.00000     0.82365    0.00338     0.82703
      H    9    0.15928      0.00000     0.83797    0.00275     0.84072
      H   10    0.13180      0.00000     0.86122    0.00698     0.86820
      O   11   -0.79820      1.99977     6.78975    0.00869     8.79820
      O   12   -0.79109      1.99973     6.78124    0.01011     8.79109
      C   13    0.77547      1.99945     3.15029    0.07479     5.22453
      C   14   -0.31644      1.99909     4.30539    0.01196     6.31644
      H   15    0.18459      0.00000     0.81154    0.00387     0.81541
      H   16    0.13268      0.00000     0.86119    0.00613     0.86732
      H   17    0.15951      0.00000     0.83795    0.00254     0.84049
      H   18    0.16677      0.00000     0.83067    0.00256     0.83323
 =======================================================================
   * Total *   -1.00000     15.99466    47.79441    0.21093    64.00000

 ******   13 imaginary frequencies (negative Signs) ******

                      1                      2                      3
                      A                      A                      A
 Frequencies --  -1475.8047             -1470.9109             -1465.7086
 Red. masses --      1.0109                 1.0159                 1.0155
 Frc consts  --      1.2972                 1.2951                 1.2854
 IR Inten    --      0.3976                 0.0854                 0.4281

                      4                      5                      6
                      A                      A                      A
 Frequencies --  -1135.1854             -1119.6722             -1054.4328
 Red. masses --      1.0702                 1.0729                 1.0804
 Frc consts  --      0.8126                 0.7925                 0.7077
 IR Inten    --     15.9241                 4.5018                10.6174

                      7                      8                      9
                      A                      A                      A
 Frequencies --  -1040.4006             -1029.4891              -972.9959
 Red. masses --      1.0534                 1.0804                 1.0550
 Frc consts  --      0.6718                 0.6747                 0.5885
 IR Inten    --     10.3382                 0.5039                 1.7044

                     10                     11                     12
                      A                      A                      A
 Frequencies --   -777.9822              -557.6885              -409.0199
 Red. masses --      1.1589                 1.3137                 1.1891
 Frc consts  --      0.4133                 0.2407                 0.1172
 IR Inten    --      2.7258                 3.1979                25.4576

                     13                     14                     15
                      A                      A                      A
 Frequencies --   -228.8373                87.3772               172.3307
 Red. masses --      1.3419                 1.4187                 6.1286
 Frc consts  --      0.0414                 0.0064                 0.1072
 IR Inten    --      0.4625                 0.6769                 0.3705

                     16                     17                     18
                      A                      A                      A
 Frequencies --    265.0140               338.0554               422.4820
 Red. masses --      7.3261                 6.8308                 7.0917
 Frc consts  --      0.3032                 0.4599                 0.7458
 IR Inten    --      3.7478                 2.9175                 1.7929

                     19                     20                     21
                      A                      A                      A
 Frequencies --    465.5203               534.6337               580.5313
 Red. masses --      5.3742                 6.1050                 3.2420
 Frc consts  --      0.6862                 1.0281                 0.6438
 IR Inten    --      2.0522                 7.0430                 7.2894

                     22                     23                     24
                      A                      A                      A
 Frequencies --    689.4696               746.3935               775.6338
 Red. masses --      3.8135                 2.7995                 2.4982
 Frc consts  --      1.0681                 0.9189                 0.8855
 IR Inten    --      9.7920                12.4076                21.7232

                     25                     26                     27
                      A                      A                      A
 Frequencies --    809.1923               868.6267               874.1252
 Red. masses --      2.4003                 2.7104                 1.2907
 Frc consts  --      0.9260                 1.2049                 0.5811
 IR Inten    --     32.0142                13.6245                 5.3180

                     28                     29                     30
                      A                      A                      A
 Frequencies --    891.6059               901.9579               912.1508
 Red. masses --      1.1061                 1.1655                 1.1052
 Frc consts  --      0.5181                 0.5587                 0.5418
 IR Inten    --      8.0900                 1.4660                 2.0567

                     31                     32                     33
                      A                      A                      A
 Frequencies --    982.1370               988.2935              1056.7573
 Red. masses --      2.1001                 1.4254                 3.0990
 Frc consts  --      1.1935                 0.8203                 2.0391
 IR Inten    --     13.5625                28.9455                12.9474

                     34                     35                     36
                      A                      A                      A
 Frequencies --   1134.2545              1211.4270              1219.1584
 Red. masses --      5.8827                 5.1633                 4.3681
 Frc consts  --      4.4591                 4.4645                 3.8253
 IR Inten    --     21.9763                 6.0384                26.6621

                     37                     38                     39
                      A                      A                      A
 Frequencies --   1450.7914              1809.2776              4571.3656
 Red. masses --     12.6832                12.8737                 1.0305
 Frc consts  --     15.7286                24.8292                12.6881
 IR Inten    --    221.0668               435.8292                49.1549

                     40                     41                     42
                      A                      A                      A
 Frequencies --   4578.9229              4582.7239              4729.5686
 Red. masses --      1.0310                 1.0319                 1.0870
 Frc consts  --     12.7362                12.7680                14.3254
 IR Inten    --     29.7691                43.3778                13.7533

                     43                     44                     45
                      A                      A                      A
 Frequencies --   4772.0121              4778.9197              4786.3396
 Red. masses --      1.1062                 1.1070                 1.1057
 Frc consts  --     14.8421                14.8949                14.9243
 IR Inten    --     48.4166                13.1022                17.1255

                     46                     47                     48
                      A                      A                      A
 Frequencies --   4800.8110              4809.7520              4812.1451
 Red. masses --      1.1075                 1.1065                 1.1072
 Frc consts  --     15.0398                15.0813                15.1062
 IR Inten    --     12.1400                 4.1516                 5.2508

 - Thermochemistry -
 -------------------
 Temperature   298.150 Kelvin.  Pressure   1.00000 Atm.
 Atom     1 has atomic number  7 and mass  14.00307

 Molecular mass:   116.07115 amu.
 Principal axes and moments of inertia in atomic units:
                           1         2         3
     Eigenvalues --   561.247761169.022571370.30264
           X            0.99989   0.01470   0.00149
           Y           -0.01467   0.99971  -0.01890
           Z           -0.00176   0.01888   0.99982
 This molecule is an asymmetric top.
 Rotational symmetry number  1.
 Warning -- assumption of classical behavior for rotation
           may cause significant error
 Rotational temperatures (Kelvin)      0.15432     0.07409     0.06321
 Rotational constants (GHZ):           3.21559     1.54380     1.31704
   13 imaginary frequencies ignored.
 Zero-point vibrational energy     403199.9 (Joules/Mol)
                                   96.36709 (Kcal/Mol)
 Warning -- explicit consideration of   8 degrees of freedom as
           vibrations may cause significant error
 Vibrational temperatures:    125.72   247.95   381.30   486.39   607.86
          (Kelvin)            669.78   769.22   835.26   991.99  1073.89
                             1115.96  1164.25  1249.76  1257.67  1282.82
                             1297.72  1312.38  1413.08  1421.93  1520.44
                             1631.94  1742.97  1754.10  2087.37  2603.15
                             6577.18  6588.05  6593.52  6804.79  6865.86
                             6875.80  6886.48  6907.30  6920.16  6923.60

 Zero-point correction=                           0.153571 (Hartree/Particle)
 Thermal correction to Energy=                    0.160341
 Thermal correction to Enthalpy=                  0.161285
 Thermal correction to Gibbs Free Energy=         0.122193
 Sum of electronic and zero-point Energies=           -400.678745
 Sum of electronic and thermal Energies=              -400.671974
 Sum of electronic and thermal Enthalpies=            -400.671030
 Sum of electronic and thermal Free Energies=         -400.710122

                     E (Thermal)             CV                S
                      KCal/Mol        Cal/Mol-Kelvin    Cal/Mol-Kelvin
 Total                  100.616             25.483             82.277
 Electronic               0.000              0.000              0.000
 Translational            0.889              2.981             40.162
 Rotational               0.889              2.981             28.288
 Vibrational             98.838             19.521             13.827
 Vibration     1          0.601              1.958              3.718
 Vibration     2          0.626              1.877              2.410
 Vibration     3          0.671              1.737              1.629
 Vibration     4          0.718              1.599              1.221
 Vibration     5          0.785              1.421              0.884
 Vibration     6          0.823              1.327              0.750
 Vibration     7          0.890              1.173              0.577
 Vibration     8          0.937              1.073              0.484

 Normal termination of Gaussian 16 at Mon Mar  6 10:28:47 2023.
