 Gaussian 16, Revision C.01,
 Gaussian 16:  ES64L-G16RevC.01  3-Jul-2019

 ----------------------------------------------------------------------
 #p pop=(regular,nbo,savenbos) freq=noraman def2svp empiricaldispersion
 =gd3bj output=wfx pbe1pbe
 ----------------------------------------------------------------------

 ----------------------------------------
 NENLUO_Complex_5_Ligand_2_OO_Cu_oriented
 ----------------------------------------
 Symbolic Z-matrix:
 Charge = -2 Multiplicity = 1

                         Standard orientation:
 ---------------------------------------------------------------------
 Center     Atomic      Atomic             Coordinates (Angstroms)
 Number     Number       Type             X           Y           Z
 ---------------------------------------------------------------------
      1          8           0        3.702490    0.343835    0.781088
      2          8           0        1.814576    1.718523   -0.401842
      3          8           0        0.626151   -0.480013    1.267302
      4          6           0        2.997320   -0.361841   -0.007273
      5          6           0        1.807740    0.325823   -0.661491
      6          6           0        0.528859   -0.372798   -0.167528
      7          1           0        1.871675    0.195544   -1.630186
      8          8           0        3.244712   -1.575724   -0.233793
      9          8           0       -2.179549   -1.635596   -0.644336
     10          8           0       -4.312893   -0.126552    0.644119
     11          6           0       -0.765283    0.353132   -0.548524
     12          6           0       -2.020970   -0.349222   -0.024230
     13          6           0       -3.235144    0.466254   -0.118004
     14          1           0       -0.819946    0.407637   -1.525986
     15          1           0       -1.869557   -0.515141    0.929372
     16          1           0       -3.051641    1.355737    0.220623
     17          1           0       -3.499933    0.544723   -1.046445
     18          1           0       -1.886041   -1.606946   -1.409562
     19          1           0       -4.358946    0.233378    1.378925
     20          8           0       -0.762352    1.686083   -0.010818
     21          1           0        0.010543    1.953692    0.051722
     22          1           0        0.163134   -1.105615    1.526738
     23          1           0        0.500511   -1.275546   -0.546661
 ---------------------------------------------------------------------

 SCF Done:  E(RPBE1PBE) =  -759.506363719     A.U. after   18 cycles

 The electronic state is 1-A.
 Alpha  occ. eigenvalues --  -18.99348 -18.97594 -18.89780 -18.89738 -18.76207
 Alpha  occ. eigenvalues --  -18.74529 -18.71404 -10.03778 -10.03079 -10.00288
 Alpha  occ. eigenvalues --   -9.95934  -9.91608  -9.88224  -0.86689  -0.84607
 Alpha  occ. eigenvalues --   -0.77880  -0.75977  -0.64447  -0.58689  -0.54607
 Alpha  occ. eigenvalues --   -0.52996  -0.49714  -0.44050  -0.39222  -0.34826
 Alpha  occ. eigenvalues --   -0.30969  -0.29719  -0.27594  -0.26682  -0.24762
 Alpha  occ. eigenvalues --   -0.22364  -0.20765  -0.17882  -0.15563  -0.14002
 Alpha  occ. eigenvalues --   -0.12272  -0.11537  -0.10457  -0.08843  -0.06685
 Alpha  occ. eigenvalues --   -0.06047  -0.05541  -0.02570  -0.01385   0.00228
 Alpha  occ. eigenvalues --    0.00449   0.03437   0.11777   0.12997   0.15491
 Alpha  occ. eigenvalues --    0.17249   0.18865
 Alpha virt. eigenvalues --    0.27040   0.29760   0.32827   0.33744   0.37551
 Alpha virt. eigenvalues --    0.38570   0.39943   0.41843   0.43368   0.44752
 Alpha virt. eigenvalues --    0.45407   0.47077   0.48180   0.49883   0.51687

 Mulliken charges:
               1
     1  O   -0.473051
     2  O   -0.710822
     3  O   -0.235412
     4  C    0.056634
     5  C    0.309779
     6  C    0.150547
     7  H   -0.175551
     8  O   -0.519635
     9  O   -0.281371
    10  O   -0.316588
    11  C    0.163430
    12  C    0.152662
    13  C    0.401368
    14  H   -0.101186
    15  H   -0.106338
    16  H   -0.047833
    17  H   -0.086396
    18  H    0.073231
    19  H    0.069554
    20  O   -0.248857
    21  H   -0.003198
    22  H    0.051581
    23  H   -0.122549
 Sum of Mulliken charges =  -2.00000

 Dipole moment (field-independent basis, Debye):
    X=            -18.5663    Y=             -1.9644    Z=             -1.1605  Tot=             18.7060
 Quadrupole moment (field-independent basis, Debye-Ang):
   XX=           -171.5583   YY=           -103.9951   ZZ=            -77.2014
   XY=             -5.2434   XZ=             -7.1405   YZ=              0.6474

  Exact polarizability:     107.084       0.627      80.704       0.357       5.495      71.130
 Approx polarizability:     123.104       8.625     125.116       3.553      14.066     103.410

 Summary of Natural Population Analysis:

                                       Natural Population
                Natural  -----------------------------------------------
    Atom  No    Charge         Core      Valence    Rydberg      Total
 -----------------------------------------------------------------------
      O    1   -0.79964      1.99975     6.79110    0.00880     8.79964
      O    2   -1.01257      1.99986     7.00498    0.00772     9.01257
      O    3   -0.71437      1.99969     6.69503    0.01965     8.71437
      C    4    0.77875      1.99940     3.14559    0.07625     5.22125
      C    5    0.02572      1.99886     3.93432    0.04110     5.97428
      C    6    0.10797      1.99879     3.86351    0.02974     5.89203
      H    7    0.10607      0.00000     0.88361    0.01032     0.89393
      O    8   -0.86689      1.99975     6.85817    0.00897     8.86689
      O    9   -0.73190      1.99970     6.71400    0.01821     8.73190
      O   10   -0.73879      1.99970     6.72103    0.01806     8.73879
      C   11    0.10555      1.99882     3.86384    0.03178     5.89445
      C   12    0.12012      1.99881     3.85446    0.02661     5.87988
      C   13   -0.01099      1.99875     3.99447    0.01776     6.01099
      H   14    0.13323      0.00000     0.85769    0.00908     0.86677
      H   15    0.15322      0.00000     0.83253    0.01425     0.84678
      H   16    0.17092      0.00000     0.82076    0.00832     0.82908
      H   17    0.14196      0.00000     0.85210    0.00593     0.85804
      H   18    0.41101      0.00000     0.57967    0.00932     0.58899
      H   19    0.40787      0.00000     0.58481    0.00732     0.59213
      O   20   -0.77401      1.99966     6.75821    0.01614     8.77401
      H   21    0.45292      0.00000     0.52031    0.02678     0.54708
      H   22    0.39815      0.00000     0.59419    0.00766     0.60185
      H   23    0.13571      0.00000     0.84734    0.01695     0.86429
 =======================================================================
   * Total *   -2.00000     25.99156    77.57173    0.43672   104.00000

 ******   19 imaginary frequencies (negative Signs) ******

                      1                      2                      3
                      A                      A                      A
 Frequencies --  -2109.6788             -2107.7117             -2099.8118
 Red. masses --      1.0727                 1.0688                 1.0675
 Frc consts  --      2.8130                 2.7976                 2.7733
 IR Inten    --    196.6700                66.6856               167.9633

                      4                      5                      6
                      A                      A                      A
 Frequencies --  -2046.3657             -1629.5363             -1621.5303
 Red. masses --      1.0772                 1.0819                 1.0826
 Frc consts  --      2.6576                 1.6926                 1.6772
 IR Inten    --     58.7789               123.4569               116.6755

                      7                      8                      9
                      A                      A                      A
 Frequencies --  -1608.9389             -1532.6598             -1067.7596
 Red. masses --      1.0868                 1.1047                 1.0436
 Frc consts  --      1.6576                 1.5290                 0.7010
 IR Inten    --     74.0706               118.6482                 1.1616

                     10                     11                     12
                      A                      A                      A
 Frequencies --   -589.7458              -543.9581              -510.5388
 Red. masses --      1.2304                 1.3878                 1.4938
 Frc consts  --      0.2521                 0.2419                 0.2294
 IR Inten    --      2.9971                10.9275                14.7776

                     13                     14                     15
                      A                      A                      A
 Frequencies --   -450.3414              -428.9529              -335.4702
 Red. masses --      1.5042                 1.4039                 2.1106
 Frc consts  --      0.1797                 0.1522                 0.1399
 IR Inten    --     13.6800                10.9198                 1.6238

                     16                     17                     18
                      A                      A                      A
 Frequencies --   -288.1589              -249.5372              -166.5928
 Red. masses --      1.9432                 2.8388                 3.4474
 Frc consts  --      0.0951                 0.1041                 0.0564
 IR Inten    --     10.1631                 1.3753                 0.8325

                     19                     20                     21
                      A                      A                      A
 Frequencies --   -122.4564               138.6360               205.1821
 Red. masses --      5.7387                 8.4335                 6.6851
 Frc consts  --      0.0507                 0.0955                 0.1658
 IR Inten    --      1.6190                 1.8367                10.2371

                     22                     23                     24
                      A                      A                      A
 Frequencies --    259.9412               343.8632               399.1807
 Red. masses --      8.5265                 6.4928                 4.3611
 Frc consts  --      0.3394                 0.4523                 0.4094
 IR Inten    --     10.5452                 0.2992                 1.8847

                     25                     26                     27
                      A                      A                      A
 Frequencies --    425.3448               456.7258               510.7499
 Red. masses --      4.4370                 3.8370                 5.1740
 Frc consts  --      0.4730                 0.4716                 0.7952
 IR Inten    --     12.6432                11.2609                 7.1174

                     28                     29                     30
                      A                      A                      A
 Frequencies --    553.4973               570.4543               588.0894
 Red. masses --      2.7016                 2.4244                 2.6399
 Frc consts  --      0.4876                 0.4648                 0.5379
 IR Inten    --     24.6693                11.7008                 3.4798

                     31                     32                     33
                      A                      A                      A
 Frequencies --    662.6994               677.2501               750.9324
 Red. masses --      4.2733                 2.3360                 3.5233
 Frc consts  --      1.1057                 0.6313                 1.1706
 IR Inten    --     92.1631                 7.9572                38.6731

                     34                     35                     36
                      A                      A                      A
 Frequencies --    761.2912               816.2365               831.0834
 Red. masses --      3.4455                 1.8453                 2.6437
 Frc consts  --      1.1765                 0.7244                 1.0759
 IR Inten    --     15.1740                 6.9719                 7.3332

                     37                     38                     39
                      A                      A                      A
 Frequencies --    861.6582               878.3823               923.0662
 Red. masses --      5.0786                 3.5140                 2.5128
 Frc consts  --      2.2216                 1.5974                 1.2614
 IR Inten    --      5.7807                13.9989                10.7528

                     40                     41                     42
                      A                      A                      A
 Frequencies --    930.0057               984.4294              1018.6739
 Red. masses --      2.8252                 4.9081                 1.4816
 Frc consts  --      1.4397                 2.8024                 0.9059
 IR Inten    --     27.2698                 9.5340                13.4723

                     43                     44                     45
                      A                      A                      A
 Frequencies --   1031.1915              1057.9011              1090.2681
 Red. masses --      5.4493                 4.2614                 2.2823
 Frc consts  --      3.4140                 2.8099                 1.5984
 IR Inten    --     13.8027                52.7198                48.3831

                     46                     47                     48
                      A                      A                      A
 Frequencies --   1106.7185              1118.3023              1147.8524
 Red. masses --      5.0542                 6.3747                 5.0358
 Frc consts  --      3.6474                 4.6971                 3.9092
 IR Inten    --     45.6517                23.4156                 6.4446

                     49                     50                     51
                      A                      A                      A
 Frequencies --   1157.7342              1215.1299              1326.1957
 Red. masses --      8.3488                 7.0610                 8.6106
 Frc consts  --      6.5932                 6.1428                 8.9228
 IR Inten    --     32.4594                 4.2210                18.7418

                     52                     53                     54
                      A                      A                      A
 Frequencies --   1470.2255              1682.8624              4291.3389
 Red. masses --     12.7162                12.7268                 1.0851
 Frc consts  --     16.1948                21.2357                11.7733
 IR Inten    --    266.4764               411.4313               170.0735

                     55                     56                     57
                      A                      A                      A
 Frequencies --   4333.2196              4355.4760              4367.8679
 Red. masses --      1.0859                 1.0861                 1.0873
 Frc consts  --     12.0137                12.1388                12.2215
 IR Inten    --     52.9471                64.6501                19.7299

                     58                     59                     60
                      A                      A                      A
 Frequencies --   4437.5752              4564.7837              6176.7915
 Red. masses --      1.0597                 1.1101                 1.0681
 Frc consts  --     12.2943                13.6287                24.0088
 IR Inten    --     20.5420                12.2909               455.8680

                     61                     62                     63
                      A                      A                      A
 Frequencies --   6290.1598              6303.0012              6316.7611
 Red. masses --      1.0672                 1.0671                 1.0673
 Frc consts  --     24.8787                24.9773                25.0926
 IR Inten    --     22.1055                36.8052                47.8630

 - Thermochemistry -
 -------------------
 Temperature   298.150 Kelvin.  Pressure   1.00000 Atm.
 Atom     1 has atomic number  8 and mass  15.99491

 Molecular mass:   194.04265 amu.
 Principal axes and moments of inertia in atomic units:
                           1         2         3
     Eigenvalues --   993.667584600.275715057.26774
           X            0.99999  -0.00377  -0.00330
           Y            0.00377   0.99999   0.00015
           Z            0.00330  -0.00016   0.99999
 This molecule is an asymmetric top.
 Rotational symmetry number  1.
 Warning -- assumption of classical behavior for rotation
           may cause significant error
 Rotational temperatures (Kelvin)      0.08717     0.01883     0.01713
 Rotational constants (GHZ):           1.81624     0.39231     0.35686
   19 imaginary frequencies ignored.
 Zero-point vibrational energy     474850.1 (Joules/Mol)
                                  113.49189 (Kcal/Mol)
 Warning -- explicit consideration of  11 degrees of freedom as
           vibrations may cause significant error
 Vibrational temperatures:    199.47   295.21   374.00   494.74   574.33
          (Kelvin)            611.98   657.13   734.86   796.36   820.76
                              846.13   953.48   974.41  1080.42  1095.33
                             1174.38  1195.74  1239.73  1263.80  1328.09
                             1338.07  1416.37  1465.64  1483.65  1522.08
                             1568.65  1592.32  1608.99  1651.50  1665.72
                             1748.30  1908.10  2115.33  2421.26  6174.28
                             6234.54  6266.56  6284.39  6384.68  6567.71
                             8887.03  9050.14  9068.61  9088.41

 Zero-point correction=                           0.180861 (Hartree/Particle)
 Thermal correction to Energy=                    0.188431
 Thermal correction to Enthalpy=                  0.189376
 Thermal correction to Gibbs Free Energy=         0.147296
 Sum of electronic and zero-point Energies=           -759.325503
 Sum of electronic and thermal Energies=              -759.317932
 Sum of electronic and thermal Enthalpies=            -759.316988
 Sum of electronic and thermal Free Energies=         -759.359068

                     E (Thermal)             CV                S
                      KCal/Mol        Cal/Mol-Kelvin    Cal/Mol-Kelvin
 Total                  118.243             31.423             88.564
 Electronic               0.000              0.000              0.000
 Translational            0.889              2.981             41.694
 Rotational               0.889              2.981             31.514
 Vibrational            116.465             25.461             15.356
 Vibration     1          0.614              1.915              2.823
 Vibration     2          0.640              1.833              2.086
 Vibration     3          0.668              1.746              1.662
 Vibration     4          0.723              1.588              1.194
 Vibration     5          0.765              1.472              0.966
 Vibration     6          0.787              1.415              0.874
 Vibration     7          0.815              1.346              0.776
 Vibration     8          0.866              1.226              0.632
 Vibration     9          0.909              1.132              0.537
 Vibration    10          0.927              1.095              0.503
 Vibration    11          0.945              1.057              0.471

 Normal termination of Gaussian 16 at Mon Mar  6 10:36:55 2023.
