 Gaussian 16, Revision C.01,
 Gaussian 16:  ES64L-G16RevC.01  3-Jul-2019

 ----------------------------------------------------------------------
 #p pop=(regular,nbo,savenbos) freq=noraman def2svp empiricaldispersion
 =gd3bj output=wfx pbe1pbe
 ----------------------------------------------------------------------

 ----------------------------------------
 NEWNUB_Complex_1_Ligand_0_NN_Cu_oriented
 ----------------------------------------
 Symbolic Z-matrix:
 Charge =  0 Multiplicity = 1

                         Standard orientation:
 ---------------------------------------------------------------------
 Center     Atomic      Atomic             Coordinates (Angstroms)
 Number     Number       Type             X           Y           Z
 ---------------------------------------------------------------------
      1         16           0        3.370691   -2.044192   -0.101574
      2          7           0        0.620798   -0.334287    1.264150
      3          7           0       -0.612793   -0.319122   -1.239245
      4          6           0        0.525993    0.964423    0.511883
      5          1           0        1.347436    1.028633   -0.054406
      6          6           0        0.499793    2.213272    1.388391
      7          1           0        1.295507    2.220832    1.978042
      8          6           0        0.422432   -0.296301   -2.337046
      9          1           0        0.402617   -1.147697   -2.822717
     10          1           0        1.311359   -0.164800   -1.945580
     11          6           0        1.993051   -0.545720    1.805500
     12          1           0        2.203759    0.191124    2.432671
     13          6           0        3.059045   -0.607844    0.768736
     14          6           0        3.904949    0.461641    0.316906
     15          1           0        3.883040    1.351613    0.648996
     16          6           0        4.780089   -0.004407   -0.699792
     17          1           0        5.440145    0.544470   -1.105280
     18          6           0        4.592497   -1.289325   -1.035756
     19          1           0        5.082675   -1.732690   -1.718083
     20          6           0       -1.967341   -0.546877   -1.854954
     21          1           0       -2.176766    0.208175   -2.460012
     22          6           0        0.491142    3.460357    0.540117
     23          1           0        1.339574    3.517617    0.033115
     24          1           0        0.430977    4.255815    1.126107
     25          6           0       -0.675499    3.462339   -0.432350
     26          1           0       -1.526536    3.505354    0.072759
     27          1           0       -0.621989    4.263892   -1.011302
     28          6           0       -0.659456    2.211896   -1.292506
     29          1           0        0.144916    2.221668   -1.870138
     30          1           0       -1.457071    2.206243   -1.878741
     31          6           0       -0.652080    0.953895   -0.433919
     32          1           0       -1.488343    0.948873    0.113412
     33          6           0       -0.349912   -0.378790    2.402959
     34          1           0       -0.056095    0.235913    3.107434
     35          1           0       -0.391852   -1.289958    2.761219
     36          1           0       -1.237952   -0.111429    2.085869
     37          6           0       -3.044585   -0.671674   -0.849465
     38          6           0       -4.017964    0.228409   -0.560335
     39          1           0       -4.142473    1.046136   -1.028053
     40          6           0       -4.827167   -0.197112    0.520017
     41          1           0       -5.552798    0.318114    0.853018
     42          6           0       -4.489711   -1.365461    1.028075
     43          1           0       -4.919437   -1.775676    1.769633
     44         16           0       -3.174694   -2.046948    0.169806
     45          1           0        0.226674    0.437303   -2.956540
     46          1           0        2.003950   -1.390285    2.321559
     47          1           0       -1.938053   -1.372301   -2.400224
     48          1           0       -0.306899    2.198838    1.962453
 ---------------------------------------------------------------------

 SCF Done:  E(RPBE1PBE) =  -1605.08579971     A.U. after   15 cycles

 The electronic state is 1-A.
 Alpha  occ. eigenvalues --  -89.02865 -89.02100 -14.36533 -14.36354 -10.26113
 Alpha  occ. eigenvalues --  -10.25205 -10.23612 -10.23565 -10.23441 -10.23297
 Alpha  occ. eigenvalues --  -10.22874 -10.22751 -10.22486 -10.21734 -10.21408
 Alpha  occ. eigenvalues --  -10.21121 -10.20524 -10.20371 -10.19900 -10.19828
 Alpha  occ. eigenvalues --  -10.19577 -10.19497  -8.03018  -8.02290  -5.97129
 Alpha  occ. eigenvalues --   -5.96751  -5.96511  -5.96414  -5.96025  -5.95755
 Alpha  occ. eigenvalues --   -0.93499  -0.91784  -0.90287  -0.89470  -0.84940
 Alpha  occ. eigenvalues --   -0.78387  -0.77999  -0.76691  -0.75615  -0.75479
 Alpha  occ. eigenvalues --   -0.75331  -0.71458  -0.70993  -0.67662  -0.66915
 Alpha  occ. eigenvalues --   -0.61781  -0.61392  -0.59257  -0.58966  -0.58029
 Alpha  occ. eigenvalues --   -0.56123  -0.56000  -0.53864  -0.53692  -0.50701
 Alpha  occ. eigenvalues --   -0.49776  -0.48985  -0.47963  -0.47294  -0.46422
 Alpha  occ. eigenvalues --   -0.45039  -0.44884  -0.44164  -0.43930  -0.43208
 Alpha  occ. eigenvalues --   -0.42436  -0.42231  -0.41382  -0.40242  -0.39218
 Alpha  occ. eigenvalues --   -0.39015  -0.38948  -0.38893  -0.37925  -0.37887
 Alpha  occ. eigenvalues --   -0.37408  -0.36809  -0.36077  -0.35382  -0.35309
 Alpha  occ. eigenvalues --   -0.34544  -0.33121  -0.32868  -0.31488  -0.26190
 Alpha  occ. eigenvalues --   -0.25741  -0.24448  -0.23720  -0.21661  -0.19432
 Alpha virt. eigenvalues --   -0.01068  -0.00166   0.05980   0.06159   0.06431
 Alpha virt. eigenvalues --    0.07043   0.07635   0.08525   0.09516   0.10392
 Alpha virt. eigenvalues --    0.11544   0.11838   0.12033   0.13045   0.13787

 Mulliken charges:
               1
     1  S    0.138327
     2  N   -0.435361
     3  N   -0.441145
     4  C    0.042590
     5  H   -0.040222
     6  C    0.110799
     7  H   -0.027776
     8  C    0.273207
     9  H   -0.018302
    10  H    0.001868
    11  C    0.406162
    12  H   -0.050002
    13  C   -0.326686
    14  C    0.123288
    15  H   -0.086331
    16  C    0.075223
    17  H   -0.074772
    18  C   -0.010637
    19  H   -0.038686
    20  C    0.416906
    21  H   -0.055544
    22  C    0.074244
    23  H   -0.028667
    24  H   -0.021661
    25  C    0.074987
    26  H   -0.025956
    27  H   -0.020673
    28  C    0.101899
    29  H   -0.019630
    30  H   -0.025877
    31  C    0.036582
    32  H   -0.020479
    33  C    0.278798
    34  H   -0.040265
    35  H   -0.015526
    36  H   -0.009105
    37  C   -0.315565
    38  C    0.112399
    39  H   -0.092026
    40  C    0.075412
    41  H   -0.078385
    42  C    0.000879
    43  H   -0.041535
    44  S    0.124682
    45  H   -0.038093
    46  H   -0.024321
    47  H   -0.020471
    48  H   -0.024553
 Sum of Mulliken charges =  -0.00000

 Dipole moment (field-independent basis, Debye):
    X=             -0.0382    Y=              2.1771    Z=             -0.1013  Tot=              2.1798
 Quadrupole moment (field-independent basis, Debye-Ang):
   XX=           -141.9764   YY=           -144.2634   ZZ=           -138.1502
   XY=             -0.6934   XZ=             -6.1035   YZ=             -0.4835

  Exact polarizability:     223.121      -2.465     203.200     -29.050      -2.341     181.851
 Approx polarizability:     303.644      -4.710     333.782     -52.173      -6.177     286.110

 Summary of Natural Population Analysis:

                                       Natural Population
                Natural  -----------------------------------------------
    Atom  No    Charge         Core      Valence    Rydberg      Total
 -----------------------------------------------------------------------
      S    1    0.43806      9.99871     5.52303    0.04020    15.56194
      N    2   -0.53577      1.99942     5.52129    0.01506     7.53577
      N    3   -0.53897      1.99944     5.52483    0.01470     7.53897
      C    4   -0.01826      1.99890     3.99772    0.02164     6.01826
      H    5    0.19849      0.00000     0.79543    0.00608     0.80151
      C    6   -0.40257      1.99909     4.38975    0.01374     6.40257
      H    7    0.19753      0.00000     0.79906    0.00341     0.80247
      C    8   -0.33528      1.99913     4.32445    0.01170     6.33528
      H    9    0.18748      0.00000     0.81030    0.00222     0.81252
      H   10    0.18929      0.00000     0.80729    0.00342     0.81071
      C   11   -0.19915      1.99895     4.17966    0.02054     6.19915
      H   12    0.17902      0.00000     0.81516    0.00582     0.82098
      C   13   -0.22132      1.99918     4.20066    0.02147     6.22132
      C   14   -0.22456      1.99902     4.20980    0.01574     6.22456
      H   15    0.18661      0.00000     0.81100    0.00239     0.81339
      C   16   -0.21705      1.99906     4.20332    0.01467     6.21705
      H   17    0.18757      0.00000     0.80974    0.00269     0.81243
      C   18   -0.36296      1.99902     4.34455    0.01939     6.36296
      H   19    0.19098      0.00000     0.80676    0.00226     0.80902
      C   20   -0.19616      1.99896     4.17653    0.02067     6.19616
      H   21    0.17856      0.00000     0.81589    0.00555     0.82144
      C   22   -0.36945      1.99913     4.35755    0.01277     6.36945
      H   23    0.18506      0.00000     0.81089    0.00405     0.81494
      H   24    0.19668      0.00000     0.79963    0.00369     0.80332
      C   25   -0.36803      1.99913     4.35616    0.01273     6.36803
      H   26    0.18574      0.00000     0.81020    0.00407     0.81426
      H   27    0.19636      0.00000     0.79999    0.00365     0.80364
      C   28   -0.40278      1.99909     4.38996    0.01373     6.40278
      H   29    0.19150      0.00000     0.80449    0.00401     0.80850
      H   30    0.19721      0.00000     0.79929    0.00350     0.80279
      C   31   -0.01727      1.99892     3.99660    0.02174     6.01727
      H   32    0.19912      0.00000     0.79479    0.00609     0.80088
      C   33   -0.33691      1.99915     4.32565    0.01211     6.33691
      H   34    0.15441      0.00000     0.84096    0.00463     0.84559
      H   35    0.18749      0.00000     0.81018    0.00232     0.81251
      H   36    0.18780      0.00000     0.80925    0.00295     0.81220
      C   37   -0.20217      1.99903     4.18020    0.02294     6.20217
      C   38   -0.23407      1.99889     4.21897    0.01621     6.23407
      H   39    0.18975      0.00000     0.80770    0.00255     0.81025
      C   40   -0.21803      1.99904     4.20365    0.01534     6.21803
      H   41    0.18682      0.00000     0.81036    0.00282     0.81318
      C   42   -0.35399      1.99897     4.33570    0.01931     6.35399
      H   43    0.19294      0.00000     0.80473    0.00233     0.80706
      S   44    0.41047      9.99877     5.55108    0.03968    15.58953
      H   45    0.15505      0.00000     0.84049    0.00447     0.84495
      H   46    0.20690      0.00000     0.78973    0.00338     0.79310
      H   47    0.20695      0.00000     0.78973    0.00333     0.79305
      H   48    0.19090      0.00000     0.80512    0.00398     0.80910
 =======================================================================
   * Total *    0.00000     59.97900   119.50927    0.51174   180.00000

 ******   31 imaginary frequencies (negative Signs) ******

                      1                      2                      3
                      A                      A                      A
 Frequencies --  -1289.0044             -1279.5069             -1234.8034
 Red. masses --      1.0735                 1.0728                 1.0085
 Frc consts  --      1.0509                 1.0348                 0.9060
 IR Inten    --     76.3441                66.7788                 0.0564

                      4                      5                      6
                      A                      A                      A
 Frequencies --  -1232.1465             -1203.3563             -1173.7280
 Red. masses --      1.0093                 1.0476                 1.0459
 Frc consts  --      0.9028                 0.8938                 0.8489
 IR Inten    --      0.0864                15.5084                19.1884

                      7                      8                      9
                      A                      A                      A
 Frequencies --  -1079.8073             -1056.0584              -924.9191
 Red. masses --      1.0339                 1.0313                 1.0461
 Frc consts  --      0.7103                 0.6777                 0.5272
 IR Inten    --      0.2829                 0.2225                 3.7260

                     10                     11                     12
                      A                      A                      A
 Frequencies --   -895.9033              -889.3241              -882.6732
 Red. masses --      1.0269                 1.0472                 1.0525
 Frc consts  --      0.4856                 0.4880                 0.4831
 IR Inten    --      3.0347                 1.6601                 1.8962

                     13                     14                     15
                      A                      A                      A
 Frequencies --   -878.6676              -862.7089              -806.9088
 Red. masses --      1.0397                 1.0486                 1.0650
 Frc consts  --      0.4730                 0.4598                 0.4085
 IR Inten    --      2.7277                 1.6134                 2.6487

                     16                     17                     18
                      A                      A                      A
 Frequencies --   -780.3843              -735.3961              -725.4896
 Red. masses --      1.0651                 1.0875                 1.0898
 Frc consts  --      0.3822                 0.3465                 0.3380
 IR Inten    --      0.5484                11.7482                 3.5425

                     19                     20                     21
                      A                      A                      A
 Frequencies --   -723.9463              -718.2877              -715.6069
 Red. masses --      1.0739                 1.1005                 1.1055
 Frc consts  --      0.3316                 0.3345                 0.3335
 IR Inten    --     11.7070                 3.9723                 1.8441

                     22                     23                     24
                      A                      A                      A
 Frequencies --   -698.6084              -647.0241              -609.1928
 Red. masses --      1.0782                 1.1214                 1.1583
 Frc consts  --      0.3100                 0.2766                 0.2533
 IR Inten    --     13.7607                11.9237                10.2811

                     25                     26                     27
                      A                      A                      A
 Frequencies --   -335.0651              -317.5290              -244.1351
 Red. masses --      2.0216                 2.1815                 1.8466
 Frc consts  --      0.1337                 0.1296                 0.0648
 IR Inten    --      0.0413                 0.3318                 1.0958

                     28                     29                     30
                      A                      A                      A
 Frequencies --   -176.9500              -141.1940              -132.2332
 Red. masses --      3.7196                 3.1079                 2.3590
 Frc consts  --      0.0686                 0.0365                 0.0243
 IR Inten    --      0.5910                 0.3193                 0.0594

                     31                     32                     33
                      A                      A                      A
 Frequencies --    -94.0486                69.3859                86.4396
 Red. masses --      2.7847                 8.6024                 5.3725
 Frc consts  --      0.0145                 0.0244                 0.0237
 IR Inten    --      0.2164                 0.3669                 0.4278

                     34                     35                     36
                      A                      A                      A
 Frequencies --    101.1199               131.9754               157.7384
 Red. masses --      7.0253                 2.2757                 7.2309
 Frc consts  --      0.0423                 0.0234                 0.1060
 IR Inten    --      0.2438                 0.1595                 0.8664

                     37                     38                     39
                      A                      A                      A
 Frequencies --    203.4939               209.5565               220.9038
 Red. masses --      1.8941                 4.7755                 1.8109
 Frc consts  --      0.0462                 0.1236                 0.0521
 IR Inten    --      0.6998                 0.1543                 0.0337

                     40                     41                     42
                      A                      A                      A
 Frequencies --    290.8089               320.7454               325.0345
 Red. masses --      3.5017                 4.3347                 3.3488
 Frc consts  --      0.1745                 0.2627                 0.2084
 IR Inten    --      4.4243                 2.4447                 1.3736

                     43                     44                     45
                      A                      A                      A
 Frequencies --    382.3951               399.0007               428.2517
 Red. masses --      2.6494                 3.6661                 1.8894
 Frc consts  --      0.2283                 0.3439                 0.2042
 IR Inten    --      0.6078                 3.2286                 8.2771

                     46                     47                     48
                      A                      A                      A
 Frequencies --    439.8545               472.1450               482.1609
 Red. masses --      3.2283                 1.6877                 2.0925
 Frc consts  --      0.3680                 0.2217                 0.2866
 IR Inten    --      1.3301                 1.7655                 3.6769

                     49                     50                     51
                      A                      A                      A
 Frequencies --    490.9250               500.7977               569.9503
 Red. masses --      2.3222                 3.8836                 2.6914
 Frc consts  --      0.3297                 0.5739                 0.5151
 IR Inten    --      1.0598                 0.2239                 5.6915

                     52                     53                     54
                      A                      A                      A
 Frequencies --    579.8007               606.9557               607.4834
 Red. masses --      3.0476                 3.0934                 3.7109
 Frc consts  --      0.6036                 0.6714                 0.8069
 IR Inten    --      1.4004                 0.1315                 7.6278

                     55                     56                     57
                      A                      A                      A
 Frequencies --    609.7332               620.2350               627.8308
 Red. masses --      4.5396                 3.4194                 4.6497
 Frc consts  --      0.9944                 0.7750                 1.0798
 IR Inten    --      0.1198                 0.2422                 0.5458

                     58                     59                     60
                      A                      A                      A
 Frequencies --    643.0436               677.1904               690.5049
 Red. masses --      2.0779                 6.4001                 5.3475
 Frc consts  --      0.5062                 1.7293                 1.5022
 IR Inten    --      1.0689                 1.3995                 2.5512

                     61                     62                     63
                      A                      A                      A
 Frequencies --    720.7484               726.7257               753.3161
 Red. masses --      1.9534                 2.2130                 2.2387
 Frc consts  --      0.5979                 0.6886                 0.7485
 IR Inten    --      1.2551                10.9175                 9.3106

                     64                     65                     66
                      A                      A                      A
 Frequencies --    783.4157               793.4142               798.8439
 Red. masses --      2.0123                 3.1988                 2.7879
 Frc consts  --      0.7276                 1.1864                 1.0482
 IR Inten    --      0.4931                 1.4722                 5.3357

                     67                     68                     69
                      A                      A                      A
 Frequencies --    820.2426               827.6616               832.3358
 Red. masses --      1.8578                 4.4243                 2.9471
 Frc consts  --      0.7364                 1.7857                 1.2029
 IR Inten    --      7.5754                17.1515                17.5602

                     70                     71                     72
                      A                      A                      A
 Frequencies --    846.0199               862.6269               867.6532
 Red. masses --      1.9742                 1.4167                 1.0641
 Frc consts  --      0.8325                 0.6211                 0.4720
 IR Inten    --      3.0104                11.8920                 2.6148

                     73                     74                     75
                      A                      A                      A
 Frequencies --    885.7775               893.1300               900.0697
 Red. masses --      2.1306                 3.2580                 3.1489
 Frc consts  --      0.9849                 1.5312                 1.5030
 IR Inten    --      1.2368                 8.0107                 0.1385

                     76                     77                     78
                      A                      A                      A
 Frequencies --    932.9638               940.5782               948.0871
 Red. masses --      2.2689                 2.5818                 6.3862
 Frc consts  --      1.1636                 1.3458                 3.3821
 IR Inten    --     24.4371                23.1812                 1.5233

                     79                     80                     81
                      A                      A                      A
 Frequencies --    951.4822               973.3499               975.3374
 Red. masses --      5.6517                 1.9282                 1.7543
 Frc consts  --      3.0146                 1.0763                 0.9833
 IR Inten    --      2.0285                 3.6716                 3.6717

                     82                     83                     84
                      A                      A                      A
 Frequencies --    994.6612              1026.7449              1039.6031
 Red. masses --      3.0846                 2.0556                 1.9053
 Frc consts  --      1.7981                 1.2768                 1.2133
 IR Inten    --      1.7495                 0.9382                 6.5460

                     85                     86                     87
                      A                      A                      A
 Frequencies --   1081.1100              1089.5626              1104.0405
 Red. masses --      1.9126                 1.7367                 2.3456
 Frc consts  --      1.3171                 1.2147                 1.6845
 IR Inten    --      2.1195                 2.6221                 0.1974

                     88                     89                     90
                      A                      A                      A
 Frequencies --   1108.2482              1115.1493              1120.4157
 Red. masses --      1.4251                 1.2456                 1.1244
 Frc consts  --      1.0313                 0.9126                 0.8316
 IR Inten    --      0.7145                 9.1853                 5.3259

                     91                     92                     93
                      A                      A                      A
 Frequencies --   1125.6885              1129.4811              1137.4336
 Red. masses --      1.0870                 1.3971                 1.2432
 Frc consts  --      0.8116                 1.0501                 0.9476
 IR Inten    --     17.6290                20.2356                 6.5784

                     94                     95                     96
                      A                      A                      A
 Frequencies --   1140.6173              1142.4973              1155.8923
 Red. masses --      1.0988                 1.7217                 1.1855
 Frc consts  --      0.8422                 1.3241                 0.9332
 IR Inten    --     14.8318                 5.0290                 3.9470

                     97                     98                     99
                      A                      A                      A
 Frequencies --   1164.0114              1178.0809              1187.3077
 Red. masses --      2.3812                 2.2857                 2.8959
 Frc consts  --      1.9009                 1.8690                 2.4053
 IR Inten    --      9.3028                11.3845                 1.7021

                    100                    101                    102
                      A                      A                      A
 Frequencies --   1204.8991              1215.1193              1224.6391
 Red. masses --      2.2935                 3.0791                 3.6044
 Frc consts  --      1.9617                 2.6786                 3.1849
 IR Inten    --     26.0678                24.2797                 4.0489

                    103                    104                    105
                      A                      A                      A
 Frequencies --   1232.0389              1236.4384              1280.2394
 Red. masses --      3.4692                 4.3272                 7.4640
 Frc consts  --      3.1026                 3.8977                 7.2079
 IR Inten    --     17.9643                15.4423                11.6379

                    106                    107                    108
                      A                      A                      A
 Frequencies --   1310.5786              1312.9319              1329.2470
 Red. masses --      6.6144                 7.1189                 7.6515
 Frc consts  --      6.6938                 7.2302                 7.9654
 IR Inten    --      0.8152                 3.6244                 2.6627

                    109                    110                    111
                      A                      A                      A
 Frequencies --   1403.8594              1612.6502              1630.1554
 Red. masses --     10.5474                 8.9602                10.0876
 Frc consts  --     12.2474                13.7292                15.7942
 IR Inten    --      0.5407                 4.6834                 6.6750

                    112                    113                    114
                      A                      A                      A
 Frequencies --   1726.3685              4125.2286              4136.8479
 Red. masses --      8.9827                 1.0865                 1.0865
 Frc consts  --     15.7733                10.8939                10.9554
 IR Inten    --      4.7151                 1.6575                 7.0995

                    115                    116                    117
                      A                      A                      A
 Frequencies --   4174.9739              4178.4725              4179.3901
 Red. masses --      1.0601                 1.0596                 1.0597
 Frc consts  --     10.8869                10.8995                10.9063
 IR Inten    --     19.5167                14.4836                19.5091

                    118                    119                    120
                      A                      A                      A
 Frequencies --   4180.1036              4184.2565              4186.2086
 Red. masses --      1.0597                 1.0600                 1.0613
 Frc consts  --     10.9097                10.9343                10.9582
 IR Inten    --     13.0853                35.1461                16.0169

                    121                    122                    123
                      A                      A                      A
 Frequencies --   4229.5776              4231.3896              4286.5558
 Red. masses --      1.0309                 1.0308                 1.1086
 Frc consts  --     10.8660                10.8741                12.0014
 IR Inten    --     32.5087                22.2921                 4.9350

                    124                    125                    126
                      A                      A                      A
 Frequencies --   4287.7416              4289.8832              4291.2755
 Red. masses --      1.1081                 1.1084                 1.1085
 Frc consts  --     12.0030                12.0186                12.0267
 IR Inten    --      7.8645                10.6386                10.3266

                    127                    128                    129
                      A                      A                      A
 Frequencies --   4295.2861              4297.8510              4411.5927
 Red. masses --      1.1083                 1.1080                 1.1072
 Frc consts  --     12.0473                12.0588                12.6955
 IR Inten    --      3.2465                27.6813                15.2533

                    130                    131                    132
                      A                      A                      A
 Frequencies --   4415.3590              4432.0949              4433.4735
 Red. masses --      1.1073                 1.1081                 1.1080
 Frc consts  --     12.7183                12.8247                12.8316
 IR Inten    --     12.5673                 2.6583                 4.0104

                    133                    134                    135
                      A                      A                      A
 Frequencies --   4764.4762              4775.7000              4776.9237
 Red. masses --      1.0877                 1.0914                 1.0873
 Frc consts  --     14.5477                14.6658                14.6177
 IR Inten    --      2.8115                 0.5869                 2.8562

                    136                    137                    138
                      A                      A                      A
 Frequencies --   4785.0797              4791.1441              4796.1156
 Red. masses --      1.0902                 1.0947                 1.0947
 Frc consts  --     14.7075                14.8059                14.8362
 IR Inten    --      2.5077                 5.6990                 4.1609

 - Thermochemistry -
 -------------------
 Temperature   298.150 Kelvin.  Pressure   1.00000 Atm.
 Atom     1 has atomic number 16 and mass  31.97207

 Molecular mass:   334.15374 amu.
 Principal axes and moments of inertia in atomic units:
                           1         2         3
     Eigenvalues --  4730.31510********************
           X            1.00000  -0.00017  -0.00199
           Y            0.00017   1.00000  -0.00040
           Z            0.00199   0.00040   1.00000
 This molecule is an asymmetric top.
 Rotational symmetry number  1.
 Warning -- assumption of classical behavior for rotation
           may cause significant error
 Rotational temperatures (Kelvin)      0.01831     0.00780     0.00691
 Rotational constants (GHZ):           0.38153     0.16259     0.14408
   31 imaginary frequencies ignored.
 Zero-point vibrational energy    1086663.5 (Joules/Mol)
                                  259.71881 (Kcal/Mol)
 Warning -- explicit consideration of  25 degrees of freedom as
           vibrations may cause significant error
 Vibrational temperatures:     99.83   124.37   145.49   189.88   226.95
          (Kelvin)            292.78   301.51   317.83   418.41   461.48
                              467.65   550.18   574.07   616.16   632.85
                              679.31   693.72   706.33   720.54   820.03
                              834.20   873.27   874.03   877.27   892.38
                              903.31   925.20   974.33   993.48  1037.00
                             1045.60  1083.85  1127.16  1141.55  1149.36
                             1180.15  1190.82  1197.55  1217.23  1241.13
                             1248.36  1274.44  1285.01  1295.00  1342.33
                             1353.28  1364.09  1368.97  1400.43  1403.29
                             1431.10  1477.26  1495.76  1555.48  1567.64
                             1588.47  1594.52  1604.45  1612.03  1619.61
                             1625.07  1636.51  1641.09  1643.80  1663.07
                             1674.75  1695.00  1708.27  1733.58  1748.29
                             1761.98  1772.63  1778.96  1841.98  1885.63
                             1889.02  1912.49  2019.84  2320.24  2345.43
                             2483.86  5935.28  5952.00  6006.86  6011.89
                             6013.21  6014.24  6020.21  6023.02  6085.42
                             6088.03  6167.40  6169.10  6172.19  6174.19
                             6179.96  6183.65  6347.30  6352.72  6376.80
                             6378.78  6855.02  6871.17  6872.93  6884.66
                             6893.39  6900.54

 Zero-point correction=                           0.413888 (Hartree/Particle)
 Thermal correction to Energy=                    0.428722
 Thermal correction to Enthalpy=                  0.429666
 Thermal correction to Gibbs Free Energy=         0.372274
 Sum of electronic and zero-point Energies=          -1604.671911
 Sum of electronic and thermal Energies=             -1604.657077
 Sum of electronic and thermal Enthalpies=           -1604.656133
 Sum of electronic and thermal Free Energies=        -1604.713525

                     E (Thermal)             CV                S
                      KCal/Mol        Cal/Mol-Kelvin    Cal/Mol-Kelvin
 Total                  269.027             65.367            120.792
 Electronic               0.000              0.000              0.000
 Translational            0.889              2.981             43.314
 Rotational               0.889              2.981             34.841
 Vibrational            267.250             59.406             42.637
 Vibration     1          0.598              1.969              4.171
 Vibration     2          0.601              1.959              3.739
 Vibration     3          0.604              1.948              3.433
 Vibration     4          0.612              1.921              2.917
 Vibration     5          0.621              1.894              2.577
 Vibration     6          0.639              1.835              2.101
 Vibration     7          0.642              1.826              2.048
 Vibration     8          0.648              1.809              1.952
 Vibration     9          0.687              1.691              1.469
 Vibration    10          0.706              1.634              1.306
 Vibration    11          0.709              1.625              1.285
 Vibration    12          0.752              1.508              1.030
 Vibration    13          0.765              1.472              0.966
 Vibration    14          0.790              1.409              0.864
 Vibration    15          0.800              1.383              0.827
 Vibration    16          0.829              1.312              0.732
 Vibration    17          0.838              1.290              0.704
 Vibration    18          0.847              1.270              0.681
 Vibration    19          0.856              1.248              0.656
 Vibration    20          0.926              1.096              0.504
 Vibration    21          0.936              1.075              0.486
 Vibration    22          0.966              1.017              0.438
 Vibration    23          0.966              1.016              0.437
 Vibration    24          0.969              1.011              0.433
 Vibration    25          0.980              0.989              0.416

 Normal termination of Gaussian 16 at Sat Mar  4 13:47:22 2023.
