 Gaussian 16, Revision C.01,
 Gaussian 16:  ES64L-G16RevC.01  3-Jul-2019

 ----------------------------------------------------------------------
 #p pop=(regular,nbo,savenbos) freq=noraman def2svp empiricaldispersion
 =gd3bj output=wfx pbe1pbe
 ----------------------------------------------------------------------

 ----------------------------------------
 NINZES_Complex_5_Ligand_1_ON_Cu_oriented
 ----------------------------------------
 Symbolic Z-matrix:
 Charge = -1 Multiplicity = 1

                         Standard orientation:
 ---------------------------------------------------------------------
 Center     Atomic      Atomic             Coordinates (Angstroms)
 Number     Number       Type             X           Y           Z
 ---------------------------------------------------------------------
      1          6           0       -2.853017   -0.288423   -0.097796
      2          6           0       -1.406253    0.169068   -0.271906
      3          1           0       -1.078042   -0.232384   -1.126758
      4          6           0       -0.478963   -0.331315    0.837259
      5          1           0       -0.645170    0.192936    1.660682
      6          6           0        0.984237   -0.212010    0.460385
      7          6           0        1.630321   -1.285868   -0.143082
      8          1           0        1.163522   -2.103986   -0.259622
      9          6           0        2.941322   -1.183142   -0.575068
     10          1           0        3.365000   -1.925322   -0.991268
     11          6           0        3.630196   -0.001469   -0.401142
     12          1           0        4.527996    0.073019   -0.702728
     13          6           0        1.696596    0.970959    0.635040
     14          7           0       -1.363515    1.643315   -0.447688
     15          8           0       -3.774801    0.532520   -0.451066
     16          1           0       -1.168434    2.015278    0.321417
     17          1           0       -0.773472    1.845662   -1.071100
     18          6           0        3.012473    1.077314    0.213693
     19          1           0        3.490154    1.888194    0.346473
     20          8           0       -3.083416   -1.430436    0.317438
     21          1           0       -0.687802   -1.278949    1.032218
     22          1           0        1.275120    1.715001    1.049225
 ---------------------------------------------------------------------

 SCF Done:  E(RPBE1PBE) =  -553.038052125     A.U. after   18 cycles

 The electronic state is 1-A.
 Alpha  occ. eigenvalues --  -18.92734 -18.91088 -14.18496 -10.12845 -10.12340
 Alpha  occ. eigenvalues --  -10.12152 -10.12013 -10.11490 -10.11265 -10.08997
 Alpha  occ. eigenvalues --  -10.08202 -10.07268  -0.81929  -0.78302  -0.76914
 Alpha  occ. eigenvalues --   -0.70940  -0.68878  -0.67584  -0.61624  -0.54181
 Alpha  occ. eigenvalues --   -0.53125  -0.49952  -0.45207  -0.40706  -0.39133
 Alpha  occ. eigenvalues --   -0.37491  -0.35313  -0.34217  -0.31837  -0.31559
 Alpha  occ. eigenvalues --   -0.28609  -0.27364  -0.25767  -0.25174  -0.24043
 Alpha  occ. eigenvalues --   -0.21372  -0.18075  -0.16934  -0.16609  -0.15243
 Alpha  occ. eigenvalues --   -0.09890  -0.03508  -0.03083  -0.00585
 Alpha virt. eigenvalues --    0.09666   0.10394   0.18515   0.20719   0.21866
 Alpha virt. eigenvalues --    0.23560   0.24378   0.25242   0.26902   0.27222
 Alpha virt. eigenvalues --    0.30216   0.30901   0.32683   0.32962   0.36662

 Mulliken charges:
               1
     1  C    0.132142
     2  C   -0.065178
     3  H   -0.036188
     4  C    0.234629
     5  H   -0.045114
     6  C   -0.095441
     7  C    0.070255
     8  H   -0.093917
     9  C    0.075201
    10  H   -0.098224
    11  C    0.059810
    12  H   -0.099758
    13  C    0.047997
    14  N   -0.047744
    15  O   -0.454561
    16  H    0.009557
    17  H    0.018432
    18  C    0.072186
    19  H   -0.099187
    20  O   -0.425114
    21  H   -0.042736
    22  H   -0.117046
 Sum of Mulliken charges =  -1.00000

 Dipole moment (field-independent basis, Debye):
    X=             14.5799    Y=              1.4572    Z=              0.5171  Tot=             14.6616
 Quadrupole moment (field-independent basis, Debye-Ang):
   XX=           -135.0926   YY=            -76.6506   ZZ=            -72.2442
   XY=             -2.1889   XZ=             -4.6063   YZ=              5.2435

  Exact polarizability:     145.861      -0.307      97.292      -6.579       5.103      65.271
 Approx polarizability:     198.225      -2.651     164.242     -11.940       9.591     101.432

 Summary of Natural Population Analysis:

                                       Natural Population
                Natural  -----------------------------------------------
    Atom  No    Charge         Core      Valence    Rydberg      Total
 -----------------------------------------------------------------------
      C    1    0.77217      1.99940     3.15600    0.07243     5.22783
      C    2   -0.10234      1.99896     4.08054    0.02284     6.10234
      H    3    0.18290      0.00000     0.81260    0.00449     0.81710
      C    4   -0.42066      1.99902     4.40190    0.01973     6.42066
      H    5    0.19113      0.00000     0.80436    0.00451     0.80887
      C    6    0.00669      1.99901     3.97588    0.01842     5.99331
      C    7   -0.18571      1.99898     4.17154    0.01520     6.18571
      H    8    0.17987      0.00000     0.81688    0.00325     0.82013
      C    9   -0.18413      1.99911     4.17076    0.01426     6.18413
      H   10    0.16991      0.00000     0.82694    0.00315     0.83009
      C   11   -0.21360      1.99911     4.20009    0.01440     6.21360
      H   12    0.16728      0.00000     0.82952    0.00320     0.83272
      C   13   -0.20148      1.99898     4.18538    0.01712     6.20148
      N   14   -0.77241      1.99940     5.74835    0.02466     7.77241
      O   15   -0.78232      1.99977     6.77424    0.00831     8.78232
      H   16    0.29861      0.00000     0.69507    0.00632     0.70139
      H   17    0.30639      0.00000     0.68819    0.00542     0.69361
      C   18   -0.18330      1.99911     4.16989    0.01430     6.18330
      H   19    0.16897      0.00000     0.82790    0.00313     0.83103
      O   20   -0.79347      1.99974     6.78385    0.00988     8.79347
      H   21    0.22087      0.00000     0.76972    0.00942     0.77913
      H   22    0.17463      0.00000     0.82071    0.00466     0.82537
 =======================================================================
   * Total *   -1.00000     23.99059    63.71030    0.29910    88.00000

 ******   18 imaginary frequencies (negative Signs) ******

                      1                      2                      3
                      A                      A                      A
 Frequencies --  -1769.0108             -1648.1561             -1282.0419
 Red. masses --      1.0374                 1.1278                 1.0874
 Frc consts  --      1.9128                 1.8050                 1.0530
 IR Inten    --     55.8875               279.8266                71.2547

                      4                      5                      6
                      A                      A                      A
 Frequencies --  -1216.2886             -1159.1043             -1132.6422
 Red. masses --      1.0407                 1.1018                 1.0308
 Frc consts  --      0.9071                 0.8722                 0.7791
 IR Inten    --      2.7485                 0.5943                 0.7422

                      7                      8                      9
                      A                      A                      A
 Frequencies --  -1050.9977              -965.9179              -881.2472
 Red. masses --      1.0133                 1.0335                 1.0539
 Frc consts  --      0.6594                 0.5681                 0.4822
 IR Inten    --      0.2723                 0.1924                 0.3178

                     10                     11                     12
                      A                      A                      A
 Frequencies --   -673.8812              -649.9075              -571.8099
 Red. masses --      1.1005                 1.2391                 1.2465
 Frc consts  --      0.2944                 0.3084                 0.2401
 IR Inten    --      0.1036                 0.5859                 7.3278

                     13                     14                     15
                      A                      A                      A
 Frequencies --   -471.5243              -337.8895              -237.9444
 Red. masses --      1.2680                 1.0539                 2.2607
 Frc consts  --      0.1661                 0.0709                 0.0754
 IR Inten    --      7.5097                11.1614                 4.2861

                     16                     17                     18
                      A                      A                      A
 Frequencies --   -132.4501               -92.5418               -39.7510
 Red. masses --      3.4220                 2.6814                 3.1647
 Frc consts  --      0.0354                 0.0135                 0.0029
 IR Inten    --     14.3243                 3.3761                 3.2557

                     19                     20                     21
                      A                      A                      A
 Frequencies --    155.6723               261.9696               298.2499
 Red. masses --      6.3347                 6.1973                 3.2436
 Frc consts  --      0.0904                 0.2506                 0.1700
 IR Inten    --      0.5473                14.4377                 2.2121

                     22                     23                     24
                      A                      A                      A
 Frequencies --    388.0465               437.0564               477.1642
 Red. masses --      2.2719                 2.2308                 3.5479
 Frc consts  --      0.2016                 0.2511                 0.4759
 IR Inten    --      4.8303                14.3156                 3.8878

                     25                     26                     27
                      A                      A                      A
 Frequencies --    499.7408               547.8491               569.1566
 Red. masses --      2.6641                11.0503                 1.9202
 Frc consts  --      0.3920                 1.9541                 0.3665
 IR Inten    --      5.7556                 0.0553                27.6926

                     28                     29                     30
                      A                      A                      A
 Frequencies --    647.9932               703.6537               726.8698
 Red. masses --      3.1675                 3.1469                 4.2873
 Frc consts  --      0.7836                 0.9180                 1.3346
 IR Inten    --     10.1720                 4.1744                 2.0811

                     31                     32                     33
                      A                      A                      A
 Frequencies --    752.9434               810.4224               833.0189
 Red. masses --      4.1954                 3.0403                 7.1127
 Frc consts  --      1.4014                 1.1765                 2.9080
 IR Inten    --      0.6622                 0.1686                20.7860

                     34                     35                     36
                      A                      A                      A
 Frequencies --    859.9814               892.3799               928.8834
 Red. masses --      4.1306                 4.6507                 2.9704
 Frc consts  --      1.7999                 2.1821                 1.5100
 IR Inten    --      8.5891                 9.8848                 6.6532

                     37                     38                     39
                      A                      A                      A
 Frequencies --    953.6137              1046.4430              1051.7833
 Red. masses --      1.5007                 5.1202                 4.8467
 Frc consts  --      0.8041                 3.3035                 3.1590
 IR Inten    --      3.3869                 2.7339                11.3184

                     40                     41                     42
                      A                      A                      A
 Frequencies --   1097.8501              1136.9955              1153.5452
 Red. masses --      1.9976                 4.8462                 1.9096
 Frc consts  --      1.4185                 3.6912                 1.4972
 IR Inten    --     45.3932                 6.9124                14.4724

                     43                     44                     45
                      A                      A                      A
 Frequencies --   1202.2445              1399.9053              1407.2546
 Red. masses --      7.5192                 7.9122                12.0336
 Frc consts  --      6.4033                 9.1357                14.0407
 IR Inten    --     16.0586                 7.3960               348.2392

                     46                     47                     48
                      A                      A                      A
 Frequencies --   1429.0174              1445.1525              1659.4818
 Red. masses --      8.3466                 8.4022                10.7185
 Frc consts  --     10.0424                10.3388                17.3912
 IR Inten    --      3.4926                10.7120                32.6110

                     49                     50                     51
                      A                      A                      A
 Frequencies --   1676.6333              1754.1643              4128.0284
 Red. masses --      9.8215                12.9148                 1.0869
 Frc consts  --     16.2668                23.4141                10.9121
 IR Inten    --      4.3070               385.1319                11.6334

                     52                     53                     54
                      A                      A                      A
 Frequencies --   4188.9714              4304.8549              4751.0909
 Red. masses --      1.0602                 1.1079                 1.0861
 Frc consts  --     10.9606                12.0965                14.4451
 IR Inten    --     11.0291                 7.7506                 0.8535

                     55                     56                     57
                      A                      A                      A
 Frequencies --   4757.4089              4766.0169              4772.3161
 Red. masses --      1.0880                 1.0900                 1.0923
 Frc consts  --     14.5084                14.5874                14.6572
 IR Inten    --      2.6413                 6.6434                 5.2811

                     58                     59                     60
                      A                      A                      A
 Frequencies --   4781.1014              5422.4875              5623.6084
 Red. masses --      1.0909                 1.0500                 1.0955
 Frc consts  --     14.6922                18.1902                20.4127
 IR Inten    --      0.9936                 3.3935                 6.1320

 - Thermochemistry -
 -------------------
 Temperature   298.150 Kelvin.  Pressure   1.00000 Atm.
 Atom     1 has atomic number  6 and mass  12.00000

 Molecular mass:   164.07115 amu.
 Principal axes and moments of inertia in atomic units:
                           1         2         3
     Eigenvalues --   730.177613821.926734264.56107
           X            0.99999  -0.00270  -0.00443
           Y            0.00280   0.99974   0.02244
           Z            0.00437  -0.02245   0.99974
 This molecule is an asymmetric top.
 Rotational symmetry number  1.
 Warning -- assumption of classical behavior for rotation
           may cause significant error
 Rotational temperatures (Kelvin)      0.11862     0.02266     0.02031
 Rotational constants (GHZ):           2.47165     0.47221     0.42320
   18 imaginary frequencies ignored.
 Zero-point vibrational energy     458774.0 (Joules/Mol)
                                  109.64961 (Kcal/Mol)
 Warning -- explicit consideration of   9 degrees of freedom as
           vibrations may cause significant error
 Vibrational temperatures:    223.98   376.92   429.12   558.31   628.83
          (Kelvin)            686.53   719.02   788.23   818.89   932.32
                             1012.40  1045.80  1083.32  1166.02  1198.53
                             1237.32  1283.94  1336.46  1372.04  1505.60
                             1513.28  1579.56  1635.88  1659.69  1729.76
                             2014.15  2024.73  2056.04  2079.25  2387.62
                             2412.30  2523.85  5939.31  6027.00  6193.73
                             6835.76  6844.85  6857.24  6866.30  6878.94
                             7801.75  8091.12

 Zero-point correction=                           0.174738 (Hartree/Particle)
 Thermal correction to Energy=                    0.181503
 Thermal correction to Enthalpy=                  0.182447
 Thermal correction to Gibbs Free Energy=         0.142266
 Sum of electronic and zero-point Energies=           -552.863314
 Sum of electronic and thermal Energies=              -552.856549
 Sum of electronic and thermal Enthalpies=            -552.855605
 Sum of electronic and thermal Free Energies=         -552.895787

                     E (Thermal)             CV                S
                      KCal/Mol        Cal/Mol-Kelvin    Cal/Mol-Kelvin
 Total                  113.895             27.545             84.569
 Electronic               0.000              0.000              0.000
 Translational            0.889              2.981             41.194
 Rotational               0.889              2.981             30.854
 Vibrational            112.117             21.584             12.521
 Vibration     1          0.620              1.896              2.602
 Vibration     2          0.669              1.742              1.649
 Vibration     3          0.691              1.677              1.427
 Vibration     4          0.756              1.496              1.008
 Vibration     5          0.797              1.389              0.836
 Vibration     6          0.834              1.301              0.718
 Vibration     7          0.855              1.251              0.659
 Vibration     8          0.903              1.144              0.549
 Vibration     9          0.925              1.098              0.506

 Normal termination of Gaussian 16 at Mon Mar  6 10:35:15 2023.
