 Gaussian 16, Revision C.01,
 Gaussian 16:  ES64L-G16RevC.01  3-Jul-2019

 ----------------------------------------------------------------------
 #p pop=(regular,nbo,savenbos) freq=noraman def2svp empiricaldispersion
 =gd3bj output=wfx pbe1pbe
 ----------------------------------------------------------------------

 ----------------------------------------
 NIZBON_Complex_3_Ligand_0_NN_Cu_oriented
 ----------------------------------------
 Symbolic Z-matrix:
 Charge =  0 Multiplicity = 1

                         Standard orientation:
 ---------------------------------------------------------------------
 Center     Atomic      Atomic             Coordinates (Angstroms)
 Number     Number       Type             X           Y           Z
 ---------------------------------------------------------------------
      1          7           0        2.133074   -0.545993    0.874453
      2          7           0        0.570518    1.977279   -0.047738
      3          6           0        1.403256    0.045612   -1.368616
      4          6           0        2.184012   -0.854261   -0.425483
      5          6           0        2.741233   -1.383652    1.707530
      6          6           0        1.428993    1.510066   -0.962457
      7          6           0        2.377986    2.334881   -1.547562
      8          6           0        2.408201    3.675297   -1.222345
      9          6           0        1.458165    4.176162   -0.366990
     10          6           0        0.561704    3.303337    0.214876
     11          1           0        2.990379    1.985820   -2.154567
     12          1           0        3.062549    4.231712   -1.577672
     13          1           0        1.418469    5.086865   -0.183088
     14          1           0       -0.070386    3.640088    0.807988
     15          8           0        2.787734   -1.108491    3.014719
     16          6           0        2.347190    0.173793    3.416698
     17          1           0        1.428773    0.289848    3.164511
     18          1           0        2.430762    0.256430    4.369165
     19          6           0        3.403337   -2.838687   -0.039146
     20          6           0        3.356936   -2.575430    1.283106
     21          1           0        3.724309   -3.168313    1.898651
     22          6           0        2.828419   -1.960329   -0.925630
     23          1           0        2.874607   -2.109779   -1.842797
     24          7           0       -0.942996   -0.280428   -0.667634
     25          6           0       -1.437355   -1.983682   -2.789471
     26          6           0       -0.200277   -1.406441   -2.639347
     27          6           0        0.017317   -0.548616   -1.567313
     28          1           0       -1.589621   -2.589032   -3.477991
     29          1           0        0.480767   -1.587259   -3.245736
     30          6           0       -3.266744   -0.342253    0.062750
     31          6           0       -4.254111   -1.239015    0.498041
     32          6           0       -5.262358   -0.800390    1.336844
     33          6           0       -2.196616   -0.784944   -0.855683
     34          6           0       -2.449869   -1.656982   -1.914615
     35          1           0       -4.230141   -2.126287    0.221205
     36          1           0       -5.913376   -1.398698    1.626504
     37          1           0       -3.298900   -2.018687   -2.028180
     38          6           0       -5.313212    0.508274    1.747225
     39          6           0       -4.358413    1.401296    1.321247
     40          6           0       -3.344462    0.982253    0.482895
     41          1           0       -5.994826    0.791510    2.314449
     42          1           0       -4.395541    2.287344    1.599371
     43          1           0       -2.704589    1.593374    0.194451
     44          1           0        2.884654    0.845028    2.989260
     45          1           0        3.822566   -3.609273   -0.348823
     46          1           0        1.853524   -0.006512   -2.237349
 ---------------------------------------------------------------------

 SCF Done:  E(RPBE1PBE) =  -1124.87820806     A.U. after   15 cycles

 The electronic state is 1-A.
 Alpha  occ. eigenvalues --  -19.23332 -14.37428 -14.37210 -14.37107 -10.31633
 Alpha  occ. eigenvalues --  -10.27248 -10.27192 -10.26954 -10.26788 -10.24445
 Alpha  occ. eigenvalues --  -10.23421 -10.23390 -10.23139 -10.23034 -10.22860
 Alpha  occ. eigenvalues --  -10.22687 -10.22062 -10.22026 -10.22008 -10.21738
 Alpha  occ. eigenvalues --  -10.21535 -10.21343 -10.21124 -10.21109 -10.20991
 Alpha  occ. eigenvalues --  -10.20943 -10.20897  -1.09319  -0.96464  -0.95164
 Alpha  occ. eigenvalues --   -0.94766  -0.87904  -0.84011  -0.83242  -0.82622
 Alpha  occ. eigenvalues --   -0.82324  -0.79871  -0.78802  -0.77280  -0.76412
 Alpha  occ. eigenvalues --   -0.74454  -0.71973  -0.67014  -0.66419  -0.65626
 Alpha  occ. eigenvalues --   -0.65291  -0.63883  -0.63514  -0.61837  -0.60700
 Alpha  occ. eigenvalues --   -0.56780  -0.56301  -0.55786  -0.54256  -0.53576
 Alpha  occ. eigenvalues --   -0.51911  -0.51461  -0.50955  -0.50105  -0.49728
 Alpha  occ. eigenvalues --   -0.49243  -0.47069  -0.46912  -0.46015  -0.45825
 Alpha  occ. eigenvalues --   -0.45088  -0.44709  -0.43531  -0.43157  -0.42498
 Alpha  occ. eigenvalues --   -0.41867  -0.41427  -0.41181  -0.40565  -0.39490
 Alpha  occ. eigenvalues --   -0.38722  -0.37999  -0.37331  -0.36513  -0.35826
 Alpha  occ. eigenvalues --   -0.35333  -0.33834  -0.29957  -0.29731  -0.29169
 Alpha  occ. eigenvalues --   -0.28530  -0.27706  -0.26916  -0.26192  -0.25916
 Alpha  occ. eigenvalues --   -0.24380  -0.23453  -0.22425
 Alpha virt. eigenvalues --   -0.03334  -0.02181  -0.01641  -0.00492   0.00072
 Alpha virt. eigenvalues --    0.00475   0.01230   0.03429   0.08183   0.10317
 Alpha virt. eigenvalues --    0.10924   0.11525   0.12032   0.12330   0.12695

 Mulliken charges:
               1
     1  N   -0.172520
     2  N   -0.134952
     3  C    0.266727
     4  C   -0.045066
     5  C    0.213317
     6  C   -0.045317
     7  C    0.092249
     8  C    0.162429
     9  C    0.032640
    10  C    0.195808
    11  H   -0.110836
    12  H   -0.091785
    13  H   -0.089218
    14  H   -0.078587
    15  O   -0.359119
    16  C    0.375824
    17  H   -0.005998
    18  H   -0.018715
    19  C    0.184363
    20  C    0.042504
    21  H   -0.096910
    22  C    0.068661
    23  H   -0.121989
    24  N   -0.127870
    25  C    0.177728
    26  C    0.082515
    27  C   -0.029946
    28  H   -0.097018
    29  H   -0.117855
    30  C    0.036499
    31  C    0.087654
    32  C    0.100659
    33  C    0.025175
    34  C    0.079422
    35  H   -0.113932
    36  H   -0.096558
    37  H   -0.109533
    38  C    0.101885
    39  C    0.097663
    40  C    0.134346
    41  H   -0.094428
    42  H   -0.097617
    43  H   -0.113232
    44  H   -0.028047
    45  H   -0.095941
    46  H   -0.065079
 Sum of Mulliken charges =  -0.00000

 Dipole moment (field-independent basis, Debye):
    X=              1.0281    Y=              0.2563    Z=             -1.9200  Tot=              2.1930
 Quadrupole moment (field-independent basis, Debye-Ang):
   XX=           -141.8004   YY=           -135.2230   ZZ=           -142.7612
   XY=              3.6743   XZ=             -7.2706   YZ=              8.6297

  Exact polarizability:     258.311      -6.156     244.812     -36.659      30.024     219.103
 Approx polarizability:     365.035      -8.063     383.583     -73.364      60.164     363.612

 Summary of Natural Population Analysis:

                                       Natural Population
                Natural  -----------------------------------------------
    Atom  No    Charge         Core      Valence    Rydberg      Total
 -----------------------------------------------------------------------
      N    1   -0.56175      1.99916     5.54599    0.01659     7.56175
      N    2   -0.45629      1.99927     5.44024    0.01678     7.45629
      C    3   -0.29549      1.99883     4.27155    0.02511     6.29549
      C    4    0.27566      1.99900     3.69605    0.02929     5.72434
      C    5    0.60193      1.99893     3.36674    0.03240     5.39807
      C    6    0.25868      1.99903     3.71170    0.03059     5.74132
      C    7   -0.20553      1.99897     4.19236    0.01420     6.20553
      C    8   -0.13038      1.99911     4.11728    0.01398     6.13038
      C    9   -0.21545      1.99911     4.20341    0.01293     6.21545
      C   10    0.11268      1.99910     3.86730    0.02091     5.88732
      H   11    0.17352      0.00000     0.82348    0.00300     0.82648
      H   12    0.16986      0.00000     0.82719    0.00295     0.83014
      H   13    0.17126      0.00000     0.82546    0.00328     0.82874
      H   14    0.14762      0.00000     0.84928    0.00309     0.85238
      O   15   -0.54433      1.99963     6.53435    0.01035     8.54433
      C   16   -0.14144      1.99892     4.13091    0.01162     6.14144
      H   17    0.17089      0.00000     0.82564    0.00347     0.82911
      H   18    0.16329      0.00000     0.83480    0.00191     0.83671
      C   19   -0.11364      1.99911     4.10035    0.01419     6.11364
      C   20   -0.25702      1.99900     4.24295    0.01507     6.25702
      H   21    0.18503      0.00000     0.81154    0.00343     0.81497
      C   22   -0.25939      1.99895     4.24520    0.01523     6.25939
      H   23    0.17716      0.00000     0.81989    0.00295     0.82284
      N   24   -0.46747      1.99921     5.45169    0.01657     7.46747
      C   25   -0.11958      1.99910     4.10616    0.01432     6.11958
      C   26   -0.21715      1.99897     4.20371    0.01447     6.21715
      C   27    0.26814      1.99901     3.70365    0.02920     5.73186
      H   28    0.17206      0.00000     0.82503    0.00291     0.82794
      H   29    0.17387      0.00000     0.82316    0.00298     0.82613
      C   30   -0.06576      1.99899     4.04954    0.01722     6.06576
      C   31   -0.15743      1.99903     4.14405    0.01435     6.15743
      C   32   -0.16514      1.99910     4.15198    0.01406     6.16514
      C   33    0.22876      1.99897     3.74578    0.02649     5.77124
      C   34   -0.20315      1.99901     4.19005    0.01410     6.20315
      H   35    0.17071      0.00000     0.82619    0.00310     0.82929
      H   36    0.16922      0.00000     0.82767    0.00310     0.83078
      H   37    0.17669      0.00000     0.82022    0.00309     0.82331
      C   38   -0.16672      1.99911     4.15361    0.01400     6.16672
      C   39   -0.16140      1.99910     4.14840    0.01390     6.16140
      C   40   -0.13208      1.99900     4.11802    0.01506     6.13208
      H   41    0.16828      0.00000     0.82859    0.00312     0.83172
      H   42    0.16891      0.00000     0.82805    0.00304     0.83109
      H   43    0.18344      0.00000     0.81225    0.00431     0.81656
      H   44    0.15934      0.00000     0.83743    0.00323     0.84066
      H   45    0.17342      0.00000     0.82368    0.00290     0.82658
      H   46    0.21617      0.00000     0.77989    0.00394     0.78383
 =======================================================================
   * Total *    0.00000     53.97471   131.48248    0.54280   186.00000

 ******   35 imaginary frequencies (negative Signs) ******

                      1                      2                      3
                      A                      A                      A
 Frequencies --  -1461.6273             -1456.7273             -1436.0931
 Red. masses --      1.0823                 1.0795                 1.0743
 Frc consts  --      1.3623                 1.3496                 1.3054
 IR Inten    --     67.3377                49.5715                39.4878

                      4                      5                      6
                      A                      A                      A
 Frequencies --  -1431.0565             -1408.1465             -1367.5526
 Red. masses --      1.0729                 1.0086                 1.0454
 Frc consts  --      1.2946                 1.1783                 1.1519
 IR Inten    --     45.9684                 0.1402                 0.6023

                      7                      8                      9
                      A                      A                      A
 Frequencies --  -1342.1288             -1340.6477             -1328.3360
 Red. masses --      1.0397                 1.0401                 1.0335
 Frc consts  --      1.1035                 1.1014                 1.0744
 IR Inten    --      1.2252                 0.8009                 0.1681

                     10                     11                     12
                      A                      A                      A
 Frequencies --  -1300.4710             -1295.6429             -1238.2505
 Red. masses --      1.0329                 1.0235                 1.0195
 Frc consts  --      1.0292                 1.0123                 0.9210
 IR Inten    --      0.9982                 0.0550                 0.4985

                     13                     14                     15
                      A                      A                      A
 Frequencies --  -1210.2794             -1197.7529             -1196.8625
 Red. masses --      1.0316                 1.0343                 1.0314
 Frc consts  --      0.8903                 0.8742                 0.8705
 IR Inten    --      0.7732                 0.6672                 1.1806

                     16                     17                     18
                      A                      A                      A
 Frequencies --  -1165.2283              -951.9750              -942.3183
 Red. masses --      1.0361                 1.0891                 1.0896
 Frc consts  --      0.8288                 0.5815                 0.5700
 IR Inten    --      0.4640                 0.1362                 0.1005

                     19                     20                     21
                      A                      A                      A
 Frequencies --   -935.8352              -930.9849              -899.8338
 Red. masses --      1.0818                 1.0672                 1.1435
 Frc consts  --      0.5582                 0.5450                 0.5455
 IR Inten    --      0.1866                 0.5943                 0.9139

                     22                     23                     24
                      A                      A                      A
 Frequencies --   -872.5139              -856.8630              -846.3182
 Red. masses --      1.1395                 1.1046                 1.0734
 Frc consts  --      0.5111                 0.4778                 0.4530
 IR Inten    --      6.6306                10.7165                 9.9400

                     25                     26                     27
                      A                      A                      A
 Frequencies --   -842.5436              -833.2086              -830.6489
 Red. masses --      1.1032                 1.1215                 1.1162
 Frc consts  --      0.4614                 0.4587                 0.4537
 IR Inten    --     10.9861                13.9640                 5.0084

                     28                     29                     30
                      A                      A                      A
 Frequencies --   -778.4456              -772.7802              -759.3085
 Red. masses --      1.0744                 1.0852                 1.0869
 Frc consts  --      0.3836                 0.3818                 0.3692
 IR Inten    --     10.1891                 7.7068                 8.5788

                     31                     32                     33
                      A                      A                      A
 Frequencies --   -736.8453              -705.1854              -703.4946
 Red. masses --      1.1122                 1.0818                 1.0385
 Frc consts  --      0.3558                 0.3170                 0.3028
 IR Inten    --      2.9988                11.8430                19.1227

                     34                     35                     36
                      A                      A                      A
 Frequencies --   -180.9333               -50.3804                62.6021
 Red. masses --      3.1759                 5.6952                 6.6290
 Frc consts  --      0.0613                 0.0085                 0.0153
 IR Inten    --      1.0997                 0.1282                 0.0368

                     37                     38                     39
                      A                      A                      A
 Frequencies --     98.0950               116.2319               156.6398
 Red. masses --      7.2410                 7.6185                 6.6507
 Frc consts  --      0.0411                 0.0606                 0.0961
 IR Inten    --      0.1117                 0.2657                 0.4342

                     40                     41                     42
                      A                      A                      A
 Frequencies --    180.1233               194.8210               208.8905
 Red. masses --      9.9679                 8.4936                 8.2537
 Frc consts  --      0.1905                 0.1899                 0.2122
 IR Inten    --      1.5254                 0.0591                 0.2338

                     43                     44                     45
                      A                      A                      A
 Frequencies --    233.5376               248.9145               289.6880
 Red. masses --      8.3106                 9.4343                 8.2164
 Frc consts  --      0.2671                 0.3444                 0.4062
 IR Inten    --      0.0100                 0.1703                 1.9753

                     46                     47                     48
                      A                      A                      A
 Frequencies --    296.5003               306.3860               318.6234
 Red. masses --      7.2759                 8.0413                 7.8378
 Frc consts  --      0.3769                 0.4447                 0.4688
 IR Inten    --      0.6108                 0.1981                 0.9145

                     49                     50                     51
                      A                      A                      A
 Frequencies --    334.8975               414.7271               457.8575
 Red. masses --      6.7604                 2.9511                 3.4721
 Frc consts  --      0.4467                 0.2991                 0.4289
 IR Inten    --      0.2419                 0.2086                 0.5897

                     52                     53                     54
                      A                      A                      A
 Frequencies --    483.7163               521.8535               526.8711
 Red. masses --      6.8554                 9.8468                10.0340
 Frc consts  --      0.9451                 1.5799                 1.6411
 IR Inten    --      0.7972                 0.5138                 3.4452

                     55                     56                     57
                      A                      A                      A
 Frequencies --    533.2213               540.1926               541.2284
 Red. masses --      9.4817                 5.4438                10.4463
 Frc consts  --      1.5884                 0.9359                 1.8029
 IR Inten    --      1.6535                 1.4081                 0.3644

                     58                     59                     60
                      A                      A                      A
 Frequencies --    566.8073               584.5736               595.9631
 Red. masses --      6.4497                 5.3833                 5.4882
 Frc consts  --      1.2208                 1.0839                 1.1485
 IR Inten    --      0.1157                 0.8558                 0.7799

                     61                     62                     63
                      A                      A                      A
 Frequencies --    622.2471               637.3221               667.9675
 Red. masses --      5.0251                 4.3465                 6.0971
 Frc consts  --      1.1464                 1.0402                 1.6028
 IR Inten    --      1.8463                 2.0884                 2.2323

                     64                     65                     66
                      A                      A                      A
 Frequencies --    694.3469               710.7042               728.7000
 Red. masses --      3.8661                 1.6113                 5.0216
 Frc consts  --      1.0982                 0.4795                 1.5710
 IR Inten    --      5.1891                37.5432                 2.1081

                     67                     68                     69
                      A                      A                      A
 Frequencies --    734.3501               750.2247               752.8306
 Red. masses --      4.5081                 4.3071                 4.1423
 Frc consts  --      1.4324                 1.4283                 1.3832
 IR Inten    --     14.0673                 6.2479                 3.7661

                     70                     71                     72
                      A                      A                      A
 Frequencies --    762.7338               765.3267               776.9176
 Red. masses --      3.8065                 6.0087                 4.1567
 Frc consts  --      1.3047                 2.0736                 1.4783
 IR Inten    --      1.5250                 7.3982                18.8299

                     73                     74                     75
                      A                      A                      A
 Frequencies --    802.8455               812.3179               817.9776
 Red. masses --      5.9192                 4.9713                 6.5083
 Frc consts  --      2.2479                 1.9327                 2.5657
 IR Inten    --      3.4195                 4.1766                 2.7921

                     76                     77                     78
                      A                      A                      A
 Frequencies --    830.7991               854.0638               866.6795
 Red. masses --      4.5643                 8.7756                 7.2192
 Frc consts  --      1.8562                 3.7714                 3.1949
 IR Inten    --      2.1053                 2.8718                 0.3343

                     79                     80                     81
                      A                      A                      A
 Frequencies --    886.9749               943.1747               986.7888
 Red. masses --      6.3377                 5.9358                 8.0714
 Frc consts  --      2.9377                 3.1111                 4.6307
 IR Inten    --      1.6449                 2.3410                 6.6946

                     82                     83                     84
                      A                      A                      A
 Frequencies --   1024.1638              1029.4719              1041.5431
 Red. masses --      1.8297                 7.1650                 7.2065
 Frc consts  --      1.1307                 4.4740                 4.6060
 IR Inten    --      8.0056                 1.2415                 1.3138

                     85                     86                     87
                      A                      A                      A
 Frequencies --   1044.5579              1051.7552              1052.7419
 Red. masses --      4.2534                 3.7772                 1.3171
 Frc consts  --      2.7344                 2.4618                 0.8600
 IR Inten    --      5.8935                 2.8902                18.7059

                     88                     89                     90
                      A                      A                      A
 Frequencies --   1111.0820              1147.3693              1177.1567
 Red. masses --      2.3624                 7.6136                 4.6775
 Frc consts  --      1.7183                 5.9054                 3.8188
 IR Inten    --     56.1521                11.4906                18.8937

                     91                     92                     93
                      A                      A                      A
 Frequencies --   1227.1129              1300.0113              1303.3099
 Red. masses --      7.8104                 9.2269                 9.1096
 Frc consts  --      6.9294                 9.1876                 9.1168
 IR Inten    --      3.9142                13.8361                 3.8777

                     94                     95                     96
                      A                      A                      A
 Frequencies --   1321.5054              1350.8802              1375.2075
 Red. masses --      8.9405                 9.0421                 8.3218
 Frc consts  --      9.1992                 9.7220                 9.2727
 IR Inten    --      3.0053                27.4805                 9.4107

                     97                     98                     99
                      A                      A                      A
 Frequencies --   1389.9365              1404.5705              1410.3749
 Red. masses --      8.8854                 8.3804                 9.2290
 Frc consts  --     10.1138                 9.7409                10.8162
 IR Inten    --     41.2575                 7.5711                40.3740

                    100                    101                    102
                      A                      A                      A
 Frequencies --   1420.7294              1427.7467              1442.8113
 Red. masses --      9.9902                10.1816                 8.8754
 Frc consts  --     11.8808                12.2284                10.8858
 IR Inten    --     20.1673                25.0242                 8.8453

                    103                    104                    105
                      A                      A                      A
 Frequencies --   1472.1361              1502.1592              1505.5333
 Red. masses --      9.6552                10.0895                 9.9661
 Frc consts  --     12.3284                13.4138                13.3093
 IR Inten    --     79.5973                63.8688               315.6579

                    106                    107                    108
                      A                      A                      A
 Frequencies --   1635.8836              1642.5659              1649.3970
 Red. masses --     10.4948                10.7264                10.4632
 Frc consts  --     16.5473                17.0510                16.7712
 IR Inten    --    110.3218                36.5281                86.0567

                    109                    110                    111
                      A                      A                      A
 Frequencies --   1664.4533              1669.5537              1682.5433
 Red. masses --     10.3464                10.1435                10.8507
 Frc consts  --     16.8883                16.6586                18.0983
 IR Inten    --      0.5472                35.7097                91.3395

                    112                    113                    114
                      A                      A                      A
 Frequencies --   1688.4362              1728.7904              4359.3929
 Red. masses --     10.3221                10.2690                 1.0865
 Frc consts  --     17.3376                18.0827                12.1654
 IR Inten    --      3.2417               169.3072                 2.2241

                    115                    116                    117
                      A                      A                      A
 Frequencies --   4477.9611              4681.5856              4690.2700
 Red. masses --      1.0314                 1.1078                 1.1081
 Frc consts  --     12.1851                14.3059                14.3625
 IR Inten    --     21.2534                 2.8922                 1.6759

                    118                    119                    120
                      A                      A                      A
 Frequencies --   5017.0140              5022.0171              5027.1490
 Red. masses --      1.0871                 1.0876                 1.0880
 Frc consts  --     16.1219                16.1617                16.2000
 IR Inten    --      0.0117                 2.0467                 0.3460

                    121                    122                    123
                      A                      A                      A
 Frequencies --   5027.7688              5029.3978              5030.5779
 Red. masses --      1.0885                 1.0897                 1.0895
 Frc consts  --     16.2111                16.2402                16.2448
 IR Inten    --      2.6582                 0.1341                 0.5160

                    124                    125                    126
                      A                      A                      A
 Frequencies --   5032.6031              5032.6762              5037.2142
 Red. masses --      1.0877                 1.0883                 1.0893
 Frc consts  --     16.2304                16.2397                16.2844
 IR Inten    --      0.8201                 0.1988                 0.0225

                    127                    128                    129
                      A                      A                      A
 Frequencies --   5040.4703              5041.2681              5042.5504
 Red. masses --      1.0927                 1.0905                 1.0900
 Frc consts  --     16.3572                16.3294                16.3291
 IR Inten    --      0.7929                 0.0408                 1.5271

                    130                    131                    132
                      A                      A                      A
 Frequencies --   5046.7557              5048.2046              5049.7232
 Red. masses --      1.0915                 1.0927                 1.0921
 Frc consts  --     16.3796                16.4065                16.4072
 IR Inten    --      0.8763                 0.4936                 0.0245

 - Thermochemistry -
 -------------------
 Temperature   298.150 Kelvin.  Pressure   1.00000 Atm.
 Atom     1 has atomic number  7 and mass  14.00307

 Molecular mass:   353.15281 amu.
 Principal axes and moments of inertia in atomic units:
                           1         2         3
     Eigenvalues --  7572.66973********************
           X            0.99997   0.00419  -0.00671
           Y           -0.00387   0.99888   0.04714
           Z            0.00690  -0.04711   0.99887
 This molecule is an asymmetric top.
 Rotational symmetry number  1.
 Warning -- assumption of classical behavior for rotation
           may cause significant error
 Rotational temperatures (Kelvin)      0.01144     0.00667     0.00610
 Rotational constants (GHZ):           0.23832     0.13898     0.12717
   35 imaginary frequencies ignored.
 Zero-point vibrational energy     974049.4 (Joules/Mol)
                                  232.80340 (Kcal/Mol)
 Warning -- explicit consideration of  25 degrees of freedom as
           vibrations may cause significant error
 Vibrational temperatures:     90.07   141.14   167.23   225.37   259.16
          (Kelvin)            280.30   300.55   336.01   358.13   416.80
                              426.60   440.82   458.43   481.84   596.70
                              658.75   695.96   750.83   758.05   767.19
                              777.22   778.71   815.51   841.07   857.46
                              895.27   916.96   961.06   999.01  1022.54
                             1048.44  1056.57  1079.41  1083.16  1097.40
                             1101.13  1117.81  1155.12  1168.74  1176.89
                             1195.33  1228.81  1246.96  1276.16  1357.02
                             1419.77  1473.54  1481.18  1498.55  1502.89
                             1513.24  1514.66  1598.60  1650.81  1693.67
                             1765.54  1870.43  1875.17  1901.35  1943.62
                             1978.62  1999.81  2020.86  2029.21  2044.11
                             2054.21  2075.88  2118.08  2161.27  2166.13
                             2353.67  2363.29  2373.11  2394.78  2402.12
                             2420.80  2429.28  2487.34  6272.19  6442.79
                             6735.76  6748.25  7218.36  7225.56  7232.95
                             7233.84  7236.18  7237.88  7240.79  7240.90
                             7247.43  7252.11  7253.26  7255.11  7261.16
                             7263.24  7265.43

 Zero-point correction=                           0.370996 (Hartree/Particle)
 Thermal correction to Energy=                    0.386014
 Thermal correction to Enthalpy=                  0.386958
 Thermal correction to Gibbs Free Energy=         0.328819
 Sum of electronic and zero-point Energies=          -1124.507212
 Sum of electronic and thermal Energies=             -1124.492194
 Sum of electronic and thermal Enthalpies=           -1124.491250
 Sum of electronic and thermal Free Energies=        -1124.549389

                     E (Thermal)             CV                S
                      KCal/Mol        Cal/Mol-Kelvin    Cal/Mol-Kelvin
 Total                  242.228             63.583            122.365
 Electronic               0.000              0.000              0.000
 Translational            0.889              2.981             43.479
 Rotational               0.889              2.981             35.588
 Vibrational            240.450             57.622             43.297
 Vibration     1          0.597              1.972              4.373
 Vibration     2          0.604              1.951              3.492
 Vibration     3          0.608              1.936              3.162
 Vibration     4          0.620              1.895              2.590
 Vibration     5          0.629              1.867              2.327
 Vibration     6          0.635              1.847              2.181
 Vibration     7          0.642              1.827              2.053
 Vibration     8          0.654              1.790              1.852
 Vibration     9          0.662              1.765              1.738
 Vibration    10          0.686              1.693              1.476
 Vibration    11          0.690              1.680              1.437
 Vibration    12          0.697              1.662              1.382
 Vibration    13          0.705              1.638              1.317
 Vibration    14          0.716              1.606              1.236
 Vibration    15          0.778              1.438              0.910
 Vibration    16          0.816              1.344              0.772
 Vibration    17          0.840              1.286              0.700
 Vibration    18          0.877              1.202              0.606
 Vibration    19          0.882              1.191              0.594
 Vibration    20          0.888              1.177              0.580
 Vibration    21          0.895              1.161              0.565
 Vibration    22          0.896              1.159              0.563
 Vibration    23          0.923              1.103              0.510
 Vibration    24          0.942              1.065              0.477
 Vibration    25          0.954              1.040              0.457

 Normal termination of Gaussian 16 at Sat Mar  4 13:40:53 2023.
