 Gaussian 16, Revision C.01,
 Gaussian 16:  ES64L-G16RevC.01  3-Jul-2019

 ----------------------------------------------------------------------
 #p pop=(regular,nbo,savenbos) freq=noraman def2svp empiricaldispersion
 =gd3bj output=wfx pbe1pbe
 ----------------------------------------------------------------------

 ----------------------------------------
 NOGTIP_Complex_5_Ligand_0_PP_Cu_oriented
 ----------------------------------------
 Symbolic Z-matrix:
 Charge =  0 Multiplicity = 1

                         Standard orientation:
 ---------------------------------------------------------------------
 Center     Atomic      Atomic             Coordinates (Angstroms)
 Number     Number       Type             X           Y           Z
 ---------------------------------------------------------------------
      1         15           0       -1.273801    0.104505   -0.234629
      2          6           0       -3.104002    0.316947   -0.144014
      3          6           0       -3.663878    1.510609    0.202135
      4          1           0       -3.115235    2.250239    0.434106
      5          6           0       -5.056369    1.634301    0.212099
      6          1           0       -5.457728    2.465954    0.434725
      7          1           0       -1.228807    1.292010    0.602616
      8          6           0       -5.831581    0.566068   -0.095298
      9          1           0       -6.776434    0.657948   -0.069214
     10          6           0       -5.297909   -0.614816   -0.435185
     11          6           0       -3.886540   -0.762748   -0.465505
     12          1           0       -3.492312   -1.593135   -0.703959
     13         15           0        1.766686   -1.170823   -1.023544
     14          6           0       -0.955053   -1.062009    1.144597
     15          1           0       -1.418026   -0.725503    1.952449
     16          1           0       -1.356737   -1.936593    0.914362
     17          6           0        0.509795   -1.283222    1.489434
     18          1           0        0.944073   -0.397321    1.581368
     19          1           0        0.557811   -1.728068    2.371903
     20          6           0        1.309668   -2.097139    0.507017
     21          1           0        0.782975   -2.896318    0.252610
     22          1           0        2.136879   -2.411010    0.951053
     23          1           0        2.582651   -2.044364   -1.475320
     24          6           0        3.102242   -0.062267   -0.444330
     25          6           0        5.379692    0.324676    0.180986
     26          1           0        6.249044   -0.013121    0.361521
     27          6           0        5.118515    1.696187    0.283602
     28          1           0        5.824609    2.289434    0.510158
     29          6           0        3.865481    2.197786    0.065678
     30          1           0        3.693006    3.125922    0.170082
     31          6           0        2.822643    1.306264   -0.319515
     32          1           0        1.948200    1.635183   -0.491292
     33          6           0        4.363027   -0.531540   -0.184087
     34          1           0        4.539028   -1.462164   -0.256333
     35          1           0       -5.860667   -1.348916   -0.653918
 ---------------------------------------------------------------------

 SCF Done:  E(RPBE1PBE) =  -1263.32190818     A.U. after   14 cycles

 The electronic state is 1-A.
 Alpha  occ. eigenvalues --  -77.18204 -77.16849 -10.23706 -10.23165 -10.22838
 Alpha  occ. eigenvalues --  -10.22505 -10.22404 -10.22267 -10.22211 -10.22053
 Alpha  occ. eigenvalues --  -10.21854 -10.21771 -10.21713 -10.21510 -10.21356
 Alpha  occ. eigenvalues --  -10.21341 -10.20937  -6.59432  -6.58515  -4.73461
 Alpha  occ. eigenvalues --   -4.73411  -4.72967  -4.72535  -4.72487  -4.72008
 Alpha  occ. eigenvalues --   -0.88646  -0.88217  -0.83867  -0.79033  -0.78342
 Alpha  occ. eigenvalues --   -0.77458  -0.77282  -0.74438  -0.67632  -0.64993
 Alpha  occ. eigenvalues --   -0.64642  -0.64166  -0.62484  -0.59596  -0.59018
 Alpha  occ. eigenvalues --   -0.54937  -0.54636  -0.49944  -0.49678  -0.49248
 Alpha  occ. eigenvalues --   -0.47709  -0.47432  -0.46944  -0.45654  -0.45433
 Alpha  occ. eigenvalues --   -0.44881  -0.41842  -0.41300  -0.39607  -0.39180
 Alpha  occ. eigenvalues --   -0.38628  -0.37904  -0.37616  -0.37167  -0.35517
 Alpha  occ. eigenvalues --   -0.34218  -0.33201  -0.32583  -0.29111  -0.27362
 Alpha  occ. eigenvalues --   -0.26746  -0.26271  -0.24860  -0.21665
 Alpha virt. eigenvalues --   -0.01355  -0.01075  -0.01018   0.00340   0.02711
 Alpha virt. eigenvalues --    0.05314   0.07811   0.09807   0.10226   0.10743
 Alpha virt. eigenvalues --    0.11125   0.11516   0.12332   0.13731   0.13834

 Mulliken charges:
               1
     1  P    0.206575
     2  C   -0.154613
     3  C    0.068544
     4  H   -0.089071
     5  C    0.087501
     6  H   -0.077948
     7  H   -0.018942
     8  C    0.084863
     9  H   -0.078207
    10  C    0.086348
    11  C    0.082208
    12  H   -0.089383
    13  P    0.255792
    14  C   -0.108223
    15  H    0.027064
    16  H    0.020687
    17  C    0.051864
    18  H   -0.002745
    19  H    0.001327
    20  C   -0.101231
    21  H    0.020288
    22  H    0.015090
    23  H   -0.045042
    24  C   -0.209161
    25  C    0.087748
    26  H   -0.075617
    27  C    0.078944
    28  H   -0.070311
    29  C    0.080112
    30  H   -0.071761
    31  C    0.102621
    32  H   -0.081595
    33  C    0.084166
    34  H   -0.090960
    35  H   -0.076933
 Sum of Mulliken charges =  -0.00000

 Dipole moment (field-independent basis, Debye):
    X=              0.3998    Y=             -0.7652    Z=              2.1390  Tot=              2.3067
 Quadrupole moment (field-independent basis, Debye-Ang):
   XX=           -101.8667   YY=           -104.6472   ZZ=           -121.1519
   XY=             -0.1047   XZ=              1.6391   YZ=              1.3541

  Exact polarizability:     266.346       1.118     183.104       8.667      10.330     115.366
 Approx polarizability:     340.922      -1.461     313.008      15.056      26.042     183.739

 Summary of Natural Population Analysis:

                                       Natural Population
                Natural  -----------------------------------------------
    Atom  No    Charge         Core      Valence    Rydberg      Total
 -----------------------------------------------------------------------
      P    1    0.50593      9.99854     4.45614    0.03939    14.49407
      C    2   -0.30844      1.99900     4.28298    0.02646     6.30844
      C    3   -0.18547      1.99894     4.17001    0.01652     6.18547
      H    4    0.18263      0.00000     0.81442    0.00295     0.81737
      C    5   -0.15611      1.99910     4.14224    0.01477     6.15611
      H    6    0.17830      0.00000     0.81868    0.00301     0.82170
      H    7   -0.01660      0.00000     1.01164    0.00495     1.01660
      C    8   -0.19563      1.99906     4.18213    0.01445     6.19563
      H    9    0.18010      0.00000     0.81656    0.00334     0.81990
      C   10   -0.15886      1.99909     4.14515    0.01462     6.15886
      C   11   -0.17899      1.99898     4.16283    0.01719     6.17899
      H   12    0.17728      0.00000     0.81945    0.00326     0.82272
      P   13    0.52488      9.99835     4.43491    0.04186    14.47512
      C   14   -0.64692      1.99907     4.63028    0.01757     6.64692
      H   15    0.21589      0.00000     0.78038    0.00373     0.78411
      H   16    0.20588      0.00000     0.79033    0.00379     0.79412
      C   17   -0.36754      1.99909     4.35336    0.01510     6.36754
      H   18    0.19331      0.00000     0.80245    0.00424     0.80669
      H   19    0.20328      0.00000     0.79270    0.00402     0.79672
      C   20   -0.63648      1.99907     4.61918    0.01823     6.63648
      H   21    0.20939      0.00000     0.78707    0.00354     0.79061
      H   22    0.20844      0.00000     0.78775    0.00381     0.79156
      H   23   -0.03773      0.00000     1.03172    0.00601     1.03773
      C   24   -0.32892      1.99901     4.30359    0.02631     6.32892
      C   25   -0.16374      1.99910     4.15028    0.01436     6.16374
      H   26    0.17895      0.00000     0.81808    0.00297     0.82105
      C   27   -0.17471      1.99910     4.16170    0.01391     6.17471
      H   28    0.17737      0.00000     0.81953    0.00310     0.82263
      C   29   -0.17033      1.99910     4.15720    0.01403     6.17033
      H   30    0.17941      0.00000     0.81767    0.00292     0.82059
      C   31   -0.15518      1.99901     4.13968    0.01649     6.15518
      H   32    0.18392      0.00000     0.81294    0.00314     0.81608
      C   33   -0.18306      1.99894     4.16713    0.01698     6.18306
      H   34    0.18170      0.00000     0.81539    0.00291     0.81830
      H   35    0.17804      0.00000     0.81894    0.00302     0.82196
 =======================================================================
   * Total *   -0.00000     49.98256    87.61450    0.40294   138.00000

 ******   29 imaginary frequencies (negative Signs) ******

                      1                      2                      3
                      A                      A                      A
 Frequencies --  -1276.6038             -1273.4104             -1171.9589
 Red. masses --      1.0856                 1.0828                 1.0322
 Frc consts  --      1.0424                 1.0345                 0.8353
 IR Inten    --     69.2216                72.6201                 0.0318

                      4                      5                      6
                      A                      A                      A
 Frequencies --  -1159.1321             -1113.3488             -1107.3286
 Red. masses --      1.0690                 1.0259                 1.0289
 Frc consts  --      0.8462                 0.7492                 0.7433
 IR Inten    --      0.0837                 0.4634                 1.8212

                      7                      8                      9
                      A                      A                      A
 Frequencies --  -1050.0646             -1049.9099              -959.2592
 Red. masses --      1.0123                 1.0121                 1.0281
 Frc consts  --      0.6576                 0.6573                 0.5574
 IR Inten    --      0.0352                 0.0175                 0.5173

                     10                     11                     12
                      A                      A                      A
 Frequencies --   -953.5547              -950.4569              -938.9692
 Red. masses --      1.0461                 1.0235                 1.0262
 Frc consts  --      0.5604                 0.5447                 0.5331
 IR Inten    --      7.9649                 3.2750                 0.3486

                     13                     14                     15
                      A                      A                      A
 Frequencies --   -895.7873              -676.5207              -651.3566
 Red. masses --      1.0364                 1.1170                 1.2205
 Frc consts  --      0.4900                 0.3012                 0.3051
 IR Inten    --      7.1661                 1.1633                 1.7591

                     16                     17                     18
                      A                      A                      A
 Frequencies --   -642.3554              -618.0813              -603.8058
 Red. masses --      1.2527                 1.0816                 1.2207
 Frc consts  --      0.3045                 0.2435                 0.2622
 IR Inten    --      0.6095                 2.2662                33.0123

                     19                     20                     21
                      A                      A                      A
 Frequencies --   -576.6513              -556.0207              -471.5784
 Red. masses --      1.2569                 1.2501                 1.2014
 Frc consts  --      0.2462                 0.2277                 0.1574
 IR Inten    --      8.7403                20.8812                17.4977

                     22                     23                     24
                      A                      A                      A
 Frequencies --   -442.2421              -355.7786              -331.2005
 Red. masses --      1.2804                 1.6773                 1.0812
 Frc consts  --      0.1475                 0.1251                 0.0699
 IR Inten    --     14.2388                 2.1709                25.8047

                     25                     26                     27
                      A                      A                      A
 Frequencies --   -315.8418              -287.6168              -213.5145
 Red. masses --      1.8420                 1.0621                 2.7781
 Frc consts  --      0.1083                 0.0518                 0.0746
 IR Inten    --      5.8629                11.2512                 1.6924

                     28                     29                     30
                      A                      A                      A
 Frequencies --   -200.9273              -132.6768                20.4802
 Red. masses --      2.0464                 2.5121                 3.3663
 Frc consts  --      0.0487                 0.0261                 0.0008
 IR Inten    --      1.4547                 0.1100                 1.3034

                     31                     32                     33
                      A                      A                      A
 Frequencies --    129.7542               146.3012               190.8505
 Red. masses --      5.7849                 3.0611                 8.5979
 Frc consts  --      0.0574                 0.0386                 0.1845
 IR Inten    --      0.1209                 0.1503                 0.2947

                     34                     35                     36
                      A                      A                      A
 Frequencies --    214.3328               254.5064               303.5867
 Red. masses --      3.6721                 5.4023                 4.1780
 Frc consts  --      0.0994                 0.2062                 0.2269
 IR Inten    --      2.3343                 2.7101                 0.0685

                     37                     38                     39
                      A                      A                      A
 Frequencies --    337.8738               366.9064               406.5206
 Red. masses --      3.0860                 2.2615                 1.9128
 Frc consts  --      0.2076                 0.1794                 0.1862
 IR Inten    --      4.0010                 4.0075                25.6653

                     40                     41                     42
                      A                      A                      A
 Frequencies --    489.8045               508.8305               539.8359
 Red. masses --      5.2326                 5.4631                 5.7140
 Frc consts  --      0.7396                 0.8334                 0.9811
 IR Inten    --      6.7216                12.8158                 8.0999

                     43                     44                     45
                      A                      A                      A
 Frequencies --    557.4056               560.1763               565.8820
 Red. masses --      4.5591                 2.8699                 9.7518
 Frc consts  --      0.8346                 0.5306                 1.8399
 IR Inten    --      1.7071                11.6145                 1.3254

                     46                     47                     48
                      A                      A                      A
 Frequencies --    608.3591               631.2795               672.9669
 Red. masses --      2.0363                 4.2798                 2.5826
 Frc consts  --      0.4440                 1.0049                 0.6891
 IR Inten    --      7.9802                 7.0322                16.8565

                     49                     50                     51
                      A                      A                      A
 Frequencies --    679.6474               688.9028               769.5862
 Red. masses --      3.2619                 2.9983                 3.2752
 Frc consts  --      0.8878                 0.8384                 1.1429
 IR Inten    --      5.6552                 5.7927                 3.0280

                     52                     53                     54
                      A                      A                      A
 Frequencies --    773.9969               787.3912               807.1283
 Red. masses --      3.2017                 7.1068                 8.7551
 Frc consts  --      1.1301                 2.5960                 3.3604
 IR Inten    --      1.1167                 0.7473                 2.2631

                     55                     56                     57
                      A                      A                      A
 Frequencies --    820.6189               842.6581               843.3618
 Red. masses --      2.9249                 3.6245                 3.3493
 Frc consts  --      1.1605                 1.5164                 1.4036
 IR Inten    --      5.2181                 1.1462                 0.8843

                     58                     59                     60
                      A                      A                      A
 Frequencies --    893.4667               916.4861               928.5014
 Red. masses --      1.5596                 1.5359                 2.6593
 Frc consts  --      0.7335                 0.7601                 1.3508
 IR Inten    --      5.3118                12.1740                 4.5146

                     61                     62                     63
                      A                      A                      A
 Frequencies --    971.7695              1017.6233              1038.7976
 Red. masses --      1.7451                 1.1792                 6.4238
 Frc consts  --      0.9709                 0.7195                 4.0841
 IR Inten    --      3.8657                17.9771                 1.0285

                     64                     65                     66
                      A                      A                      A
 Frequencies --   1048.9971              1069.1090              1088.3334
 Red. masses --      5.2634                 1.0933                 2.0636
 Frc consts  --      3.4124                 0.7363                 1.4401
 IR Inten    --      2.4622                12.5986                 3.0930

                     67                     68                     69
                      A                      A                      A
 Frequencies --   1099.7795              1105.8821              1133.7074
 Red. masses --      1.2986                 5.1000                 6.3844
 Frc consts  --      0.9254                 3.6749                 4.8347
 IR Inten    --      9.5452                 0.6657                 1.0770

                     70                     71                     72
                      A                      A                      A
 Frequencies --   1166.1464              1222.5764              1298.9012
 Red. masses --      1.2545                 5.8105                 7.7360
 Frc consts  --      1.0052                 5.1170                 7.6898
 IR Inten    --     11.3685                 6.6237                 1.2477

                     73                     74                     75
                      A                      A                      A
 Frequencies --   1316.1592              1361.2793              1473.8372
 Red. masses --      8.1395                 8.1305                 8.5267
 Frc consts  --      8.3074                 8.8769                10.9126
 IR Inten    --      1.0631                 4.1402                 4.1349

                     76                     77                     78
                      A                      A                      A
 Frequencies --   1477.9649              1562.2027              1602.2631
 Red. masses --      8.4594                 8.5938                10.4007
 Frc consts  --     10.8872                12.3569                15.7319
 IR Inten    --      2.1446                 1.2117                 2.0854

                     79                     80                     81
                      A                      A                      A
 Frequencies --   1637.4988              1702.5799              1808.9738
 Red. masses --     10.4214                10.2754                10.1134
 Frc consts  --     16.4642                17.5495                19.4991
 IR Inten    --     11.7507                 0.6158                 0.0222

                     82                     83                     84
                      A                      A                      A
 Frequencies --   2246.0593              3410.4255              4182.6741
 Red. masses --      1.0380                 1.0390                 1.0611
 Frc consts  --      3.0853                 7.1200                10.9378
 IR Inten    --     54.3328                78.5561                 9.1680

                     85                     86                     87
                      A                      A                      A
 Frequencies --   4189.0746              4194.3700              4293.2087
 Red. masses --      1.0607                 1.0607                 1.1069
 Frc consts  --     10.9672                10.9947                12.0210
 IR Inten    --      7.4934                 3.7758                 3.2149

                     88                     89                     90
                      A                      A                      A
 Frequencies --   4301.4539              4307.7731              4755.8128
 Red. masses --      1.1080                 1.1077                 1.0862
 Frc consts  --     12.0784                12.1114                14.4742
 IR Inten    --      1.7864                 0.7742                 0.1124

                     91                     92                     93
                      A                      A                      A
 Frequencies --   4762.2796              4765.8008              4768.6333
 Red. masses --      1.0873                 1.0886                 1.0877
 Frc consts  --     14.5284                14.5677                14.5734
 IR Inten    --      0.0463                 0.6236                 0.2523

                     94                     95                     96
                      A                      A                      A
 Frequencies --   4771.0499              4774.7908              4775.2862
 Red. masses --      1.0903                 1.0897                 1.0908
 Frc consts  --     14.6220                14.6370                14.6552
 IR Inten    --      0.1008                 0.7121                 0.6957

                     97                     98                     99
                      A                      A                      A
 Frequencies --   4778.8003              4780.0928              4785.7395
 Red. masses --      1.0908                 1.0938                 1.0931
 Frc consts  --     14.6774                14.7259                14.7501
 IR Inten    --      0.0828                 2.3201                 1.2329

 - Thermochemistry -
 -------------------
 Temperature   298.150 Kelvin.  Pressure   1.00000 Atm.
 Atom     1 has atomic number 15 and mass  30.97376

 Molecular mass:   260.08838 amu.
 Principal axes and moments of inertia in atomic units:
                           1         2         3
     Eigenvalues --  1770.19473********************
           X            1.00000   0.00005   0.00151
           Y           -0.00003   0.99994  -0.01103
           Z           -0.00151   0.01103   0.99994
 This molecule is an asymmetric top.
 Rotational symmetry number  1.
 Warning -- assumption of classical behavior for rotation
           may cause significant error
 Rotational temperatures (Kelvin)      0.04893     0.00725     0.00670
 Rotational constants (GHZ):           1.01952     0.15110     0.13955
   29 imaginary frequencies ignored.
 Zero-point vibrational energy     737528.3 (Joules/Mol)
                                  176.27350 (Kcal/Mol)
 Warning -- explicit consideration of  17 degrees of freedom as
           vibrations may cause significant error
 Vibrational temperatures:     29.47   186.69   210.49   274.59   308.38
          (Kelvin)            366.18   436.79   486.13   527.90   584.89
                              704.72   732.09   776.70   801.98   805.97
                              814.18   875.29   908.27   968.25   977.86
                              991.18  1107.26  1113.61  1132.88  1161.28
                             1180.69  1212.40  1213.41  1285.50  1318.62
                             1335.91  1398.16  1464.13  1494.60  1509.27
                             1538.21  1565.87  1582.34  1591.12  1631.15
                             1677.82  1759.01  1868.83  1893.66  1958.58
                             2120.52  2126.46  2247.66  2305.30  2356.00
                             2449.63  2602.71  3231.58  4906.84  6017.94
                             6027.14  6034.76  6176.97  6188.83  6197.92
                             6842.55  6851.86  6856.92  6861.00  6864.48
                             6869.86  6870.57  6875.63  6877.49  6885.61

 Zero-point correction=                           0.280910 (Hartree/Particle)
 Thermal correction to Energy=                    0.291901
 Thermal correction to Enthalpy=                  0.292845
 Thermal correction to Gibbs Free Energy=         0.241841
 Sum of electronic and zero-point Energies=          -1263.040998
 Sum of electronic and thermal Energies=             -1263.030008
 Sum of electronic and thermal Enthalpies=           -1263.029063
 Sum of electronic and thermal Free Energies=        -1263.080067

                     E (Thermal)             CV                S
                      KCal/Mol        Cal/Mol-Kelvin    Cal/Mol-Kelvin
 Total                  183.170             45.050            107.346
 Electronic               0.000              0.000              0.000
 Translational            0.889              2.981             42.567
 Rotational               0.889              2.981             33.969
 Vibrational            181.393             39.088             30.810
 Vibration     1          0.593              1.986              6.587
 Vibration     2          0.612              1.924              2.950
 Vibration     3          0.617              1.907              2.720
 Vibration     4          0.634              1.853              2.220
 Vibration     5          0.644              1.819              2.006
 Vibration     6          0.665              1.755              1.699
 Vibration     7          0.695              1.667              1.397
 Vibration     8          0.718              1.600              1.222
 Vibration     9          0.740              1.540              1.093
 Vibration    10          0.771              1.456              0.939
 Vibration    11          0.846              1.273              0.684
 Vibration    12          0.864              1.230              0.636
 Vibration    13          0.895              1.162              0.566
 Vibration    14          0.913              1.124              0.529
 Vibration    15          0.916              1.117              0.523
 Vibration    16          0.922              1.105              0.512
 Vibration    17          0.967              1.014              0.436

 1\1\GINC-JST289\Freq\RPBE1PBE\def2SVP\C15H18P2\LAPLAZA\04-Mar-2023\0\\
 #p pop=(regular,nbo,savenbos) freq=noraman def2svp empiricaldispersion
 =gd3bj output=wfx pbe1pbe\\NOGTIP_Complex_5_Ligand_0_PP_Cu_oriented\\0
 ,1\P,0.64553096,2.19229864,0.\C,-0.37379116,3.63642808,0.52768713\C,-0
 .76031721,4.59515488,-0.3608776\H,-0.48269723,4.55060598,-1.26796991\C
 ,-1.57081937,5.64618474,0.07827194\H,-1.86085821,6.31067941,-0.5354240
 6\H,0.98206272,3.01923296,-1.14721258\C,-1.94066883,5.71543176,1.38018
 769\H,-2.47789083,6.44296953,1.66993228\C,-1.56765982,4.78323396,2.267

 Normal termination of Gaussian 16 at Sat Mar  4 12:16:04 2023.
