 Gaussian 16, Revision C.01,
 Gaussian 16:  ES64L-G16RevC.01  3-Jul-2019

 ----------------------------------------------------------------------
 #p pop=(regular,nbo,savenbos) freq=noraman def2svp empiricaldispersion
 =gd3bj output=wfx pbe1pbe
 ----------------------------------------------------------------------

 ----------------------------------------
 NOPSES_Complex_0_Ligand_0_ON_Cu_oriented
 ----------------------------------------
 Symbolic Z-matrix:
 Charge = -1 Multiplicity = 1

                         Standard orientation:
 ---------------------------------------------------------------------
 Center     Atomic      Atomic             Coordinates (Angstroms)
 Number     Number       Type             X           Y           Z
 ---------------------------------------------------------------------
      1          7           0        2.294309   -1.399918   -0.034914
      2          6           0        1.103076   -1.150768   -0.818813
      3          1           0        1.355692   -0.717723   -1.672491
      4          6           0        4.483047    1.411840   -1.175662
      5          1           0        4.274747    2.129765   -1.762936
      6          6           0        3.427260    0.558503   -0.921456
      7          1           0        2.608836    0.782244   -1.349608
      8          6           0        3.389514   -0.631413   -0.091503
      9          6           0        4.461368   -1.101405    0.746898
     10          6           0        5.742489   -0.547830    0.831831
     11          1           0        6.318695   -0.989767    1.444629
     12          6           0        6.328043    0.540338    0.178857
     13          1           0        7.238430    0.701712    0.398906
     14          6           0        5.789311    1.401896   -0.725742
     15          1           0        6.369141    2.065692   -1.083086
     16          8           0        4.204806   -2.136733    1.484236
     17          8           0       -1.060173   -0.130306   -0.813352
     18          6           0        0.132176   -0.259933   -0.069657
     19          1           0       -0.066599   -0.651376    0.817091
     20          1           0        0.538412    0.631984    0.071872
     21          6           0       -2.270837   -0.275722   -0.082334
     22          1           0       -2.044322   -0.405828    0.883835
     23          6           0       -3.019504   -1.512511   -0.576911
     24          1           0       -2.450881   -2.312598   -0.444292
     25          1           0       -3.193730   -1.421246   -1.547512
     26          6           0       -4.347714   -1.713013    0.155850
     27          1           0       -4.154071   -1.832224    1.128899
     28          6           0       -5.083536   -2.968174   -0.344145
     29          1           0       -5.917980   -3.079223    0.156271
     30          1           0       -4.514923   -3.755122   -0.208499
     31          1           0       -5.284326   -2.871936   -1.298690
     32          6           0       -5.212442   -0.469882   -0.010218
     33          1           0       -6.055911   -0.583096    0.494981
     34          1           0       -5.441374   -0.351039   -0.967338
     35          6           0       -4.473401    0.771091    0.498964
     36          1           0       -4.312787    0.675365    1.471131
     37          6           0       -3.125095    0.988049   -0.215111
     38          1           0       -3.320271    1.114628   -1.187360
     39          6           0       -2.364725    2.242122    0.266053
     40          1           0       -1.448484    2.199118   -0.132369
     41          6           0       -2.188975    2.304994    1.775706
     42          1           0       -1.762722    1.480201    2.089139
     43          1           0       -3.064142    2.403294    2.204117
     44          1           0       -1.625381    3.072816    2.006981
     45          6           0       -3.009547    3.526806   -0.241740
     46          1           0       -3.108330    3.478646   -1.215824
     47          1           0       -2.443675    4.290844   -0.008136
     48          1           0       -3.892741    3.635494    0.170676
     49          1           0       -5.044297    1.567453    0.362287
     50          1           0        0.662722   -2.012264   -1.030553
 ---------------------------------------------------------------------

 SCF Done:  E(RPBE1PBE) =  -944.010397102     A.U. after   16 cycles

 The electronic state is 1-A.
 Alpha  occ. eigenvalues --  -19.09825 -18.97340 -14.18603 -10.17360 -10.14597
 Alpha  occ. eigenvalues --  -10.13475 -10.13364 -10.13134 -10.13027 -10.13025
 Alpha  occ. eigenvalues --  -10.11988 -10.11625 -10.11062 -10.11054 -10.10621
 Alpha  occ. eigenvalues --  -10.10118 -10.08403 -10.07254 -10.06964 -10.05847
 Alpha  occ. eigenvalues --  -10.04900 -10.04137  -0.94467  -0.81407  -0.79393
 Alpha  occ. eigenvalues --   -0.75778  -0.74928  -0.70697  -0.69646  -0.68989
 Alpha  occ. eigenvalues --   -0.65304  -0.64272  -0.63658  -0.62187  -0.58437
 Alpha  occ. eigenvalues --   -0.57430  -0.54870  -0.53221  -0.52355  -0.50155
 Alpha  occ. eigenvalues --   -0.50039  -0.47433  -0.43108  -0.42541  -0.41324
 Alpha  occ. eigenvalues --   -0.40870  -0.40817  -0.40126  -0.38465  -0.38146
 Alpha  occ. eigenvalues --   -0.37329  -0.36586  -0.36350  -0.35434  -0.34921
 Alpha  occ. eigenvalues --   -0.34077  -0.33335  -0.32708  -0.32205  -0.30752
 Alpha  occ. eigenvalues --   -0.29624  -0.29401  -0.28897  -0.28225  -0.27862
 Alpha  occ. eigenvalues --   -0.27208  -0.26970  -0.25855  -0.25085  -0.24852
 Alpha  occ. eigenvalues --   -0.24048  -0.23340  -0.23135  -0.22029  -0.21705
 Alpha  occ. eigenvalues --   -0.20208  -0.18203  -0.16087  -0.15095  -0.08547
 Alpha  occ. eigenvalues --   -0.07383  -0.05386  -0.02267
 Alpha virt. eigenvalues --    0.12080   0.13385   0.14272   0.15219   0.16315
 Alpha virt. eigenvalues --    0.17755   0.19383   0.19976   0.20515   0.21098
 Alpha virt. eigenvalues --    0.21287   0.22165   0.22571   0.23276   0.23344

 Mulliken charges:
               1
     1  N   -0.338723
     2  C    0.245529
     3  H   -0.059173
     4  C    0.082485
     5  H   -0.109466
     6  C    0.015865
     7  H   -0.127503
     8  C   -0.061731
     9  C    0.178254
    10  C   -0.036266
    11  H   -0.119778
    12  C    0.087742
    13  H   -0.109096
    14  C   -0.010841
    15  H   -0.124942
    16  O   -0.382328
    17  O   -0.441051
    18  C    0.281501
    19  H   -0.032568
    20  H   -0.034327
    21  C    0.191386
    22  H   -0.044325
    23  C    0.206598
    24  H   -0.024340
    25  H   -0.038760
    26  C   -0.254788
    27  H   -0.023339
    28  C    0.210092
    29  H   -0.030472
    30  H   -0.017183
    31  H   -0.026603
    32  C    0.131661
    33  H   -0.037493
    34  H   -0.037202
    35  C    0.120513
    36  H   -0.030995
    37  C   -0.098341
    38  H   -0.041532
    39  C   -0.169743
    40  H   -0.000200
    41  C    0.162626
    42  H   -0.012938
    43  H   -0.028672
    44  H   -0.020827
    45  C    0.188474
    46  H   -0.024739
    47  H   -0.024335
    48  H   -0.033782
    49  H   -0.035950
    50  H   -0.058375
 Sum of Mulliken charges =  -1.00000

 Dipole moment (field-independent basis, Debye):
    X=            -17.3739    Y=              4.9537    Z=             -1.5548  Tot=             18.1331
 Quadrupole moment (field-independent basis, Debye-Ang):
   XX=           -220.6403   YY=           -153.2924   ZZ=           -144.3819
   XY=             18.9162   XZ=            -11.2288   YZ=              7.0610

  Exact polarizability:     288.407      34.625     208.406      12.160     -23.074     159.809
 Approx polarizability:     381.906      73.467     338.859      10.752     -70.529     263.425

 Summary of Natural Population Analysis:

                                       Natural Population
                Natural  -----------------------------------------------
    Atom  No    Charge         Core      Valence    Rydberg      Total
 -----------------------------------------------------------------------
      N    1   -0.56190      1.99935     5.54429    0.01825     7.56190
      C    2   -0.18843      1.99906     4.17177    0.01760     6.18843
      H    3    0.15613      0.00000     0.83593    0.00794     0.84387
      C    4   -0.16665      1.99908     4.15214    0.01543     6.16665
      H    5    0.15608      0.00000     0.83978    0.00414     0.84392
      C    6   -0.30885      1.99905     4.29262    0.01718     6.30885
      H    7    0.16260      0.00000     0.83276    0.00464     0.83740
      C    8    0.16424      1.99895     3.81109    0.02573     5.83576
      C    9    0.41211      1.99887     3.55072    0.03831     5.58789
      C   10   -0.32700      1.99898     4.30694    0.02108     6.32700
      H   11    0.17293      0.00000     0.82109    0.00599     0.82707
      C   12   -0.16127      1.99909     4.14712    0.01507     6.16127
      H   13    0.15631      0.00000     0.83971    0.00398     0.84369
      C   14   -0.31534      1.99906     4.29817    0.01811     6.31534
      H   15    0.15920      0.00000     0.83698    0.00382     0.84080
      O   16   -0.65668      1.99980     6.64881    0.00807     8.65668
      O   17   -0.63748      1.99971     6.62639    0.01138     8.63748
      C   18    0.00925      1.99898     3.97360    0.01817     5.99075
      H   19    0.15053      0.00000     0.84223    0.00724     0.84947
      H   20    0.15682      0.00000     0.83917    0.00401     0.84318
      C   21    0.17189      1.99884     3.80530    0.02397     5.82811
      H   22    0.16278      0.00000     0.83195    0.00527     0.83722
      C   23   -0.40404      1.99905     4.38560    0.01939     6.40404
      H   24    0.20410      0.00000     0.79153    0.00437     0.79590
      H   25    0.19193      0.00000     0.80315    0.00491     0.80807
      C   26   -0.19288      1.99908     4.18056    0.01324     6.19288
      H   27    0.18488      0.00000     0.80992    0.00519     0.81512
      C   28   -0.55640      1.99920     4.54671    0.01050     6.55640
      H   29    0.18516      0.00000     0.81197    0.00287     0.81484
      H   30    0.19214      0.00000     0.80509    0.00277     0.80786
      H   31    0.18429      0.00000     0.81267    0.00304     0.81571
      C   32   -0.37820      1.99910     4.36451    0.01459     6.37820
      H   33    0.19034      0.00000     0.80588    0.00378     0.80966
      H   34    0.18510      0.00000     0.81068    0.00422     0.81490
      C   35   -0.38372      1.99911     4.36919    0.01542     6.38372
      H   36    0.18735      0.00000     0.80866    0.00399     0.81265
      C   37   -0.23936      1.99897     4.22084    0.01955     6.23936
      H   38    0.19823      0.00000     0.79581    0.00596     0.80177
      C   39   -0.18542      1.99907     4.17070    0.01565     6.18542
      H   40    0.20588      0.00000     0.78745    0.00667     0.79412
      C   41   -0.56907      1.99920     4.55950    0.01037     6.56907
      H   42    0.19395      0.00000     0.80364    0.00241     0.80605
      H   43    0.17922      0.00000     0.81787    0.00291     0.82078
      H   44    0.19425      0.00000     0.80313    0.00261     0.80575
      C   45   -0.56091      1.99920     4.55144    0.01027     6.56091
      H   46    0.18882      0.00000     0.80843    0.00275     0.81118
      H   47    0.19011      0.00000     0.80718    0.00271     0.80989
      H   48    0.17858      0.00000     0.81845    0.00298     0.82142
      H   49    0.19429      0.00000     0.80208    0.00363     0.80571
      H   50    0.17413      0.00000     0.82100    0.00488     0.82587
 =======================================================================
   * Total *   -1.00000     43.98078   121.52220    0.49702   166.00000

 ******   34 imaginary frequencies (negative Signs) ******

                      1                      2                      3
                      A                      A                      A
 Frequencies --  -1308.9102             -1240.5159             -1230.5138
 Red. masses --      1.0840                 1.0508                 1.0091
 Frc consts  --      1.0942                 0.9528                 0.9002
 IR Inten    --     78.2163                 1.5590                 0.0107

                      4                      5                      6
                      A                      A                      A
 Frequencies --  -1229.3046             -1222.5021             -1182.9134
 Red. masses --      1.0084                 1.0087                 1.0371
 Frc consts  --      0.8979                 0.8882                 0.8550
 IR Inten    --      0.0126                 0.0269                 1.8519

                      7                      8                      9
                      A                      A                      A
 Frequencies --  -1046.0201              -992.7539              -923.7658
 Red. masses --      1.0194                 1.0362                 1.0430
 Frc consts  --      0.6571                 0.6017                 0.5244
 IR Inten    --      0.7643                 1.9555                 2.9399

                     10                     11                     12
                      A                      A                      A
 Frequencies --   -885.6979              -883.3864              -864.1324
 Red. masses --      1.0368                 1.0452                 1.0480
 Frc consts  --      0.4792                 0.4806                 0.4611
 IR Inten    --      2.1071                 2.1672                 0.5082

                     13                     14                     15
                      A                      A                      A
 Frequencies --   -845.7942              -842.9376              -825.9249
 Red. masses --      1.0962                 1.0633                 1.0563
 Frc consts  --      0.4620                 0.4451                 0.4245
 IR Inten    --      7.6337                 0.7168                 2.5327

                     16                     17                     18
                      A                      A                      A
 Frequencies --   -814.7285              -808.2102              -801.7781
 Red. masses --      1.0559                 1.0684                 1.0726
 Frc consts  --      0.4130                 0.4112                 0.4063
 IR Inten    --      2.3097                 1.6744                 5.8521

                     19                     20                     21
                      A                      A                      A
 Frequencies --   -786.4477              -573.6408              -532.7345
 Red. masses --      1.0271                 1.3508                 1.4519
 Frc consts  --      0.3743                 0.2619                 0.2428
 IR Inten    --      0.3926                 0.2817                 0.4158

                     22                     23                     24
                      A                      A                      A
 Frequencies --   -505.4909              -413.7024              -382.5884
 Red. masses --      1.1583                 1.6009                 1.6764
 Frc consts  --      0.1744                 0.1614                 0.1446
 IR Inten    --      3.3220                 5.9188                 5.6741

                     25                     26                     27
                      A                      A                      A
 Frequencies --   -328.3067              -317.2368              -282.1255
 Red. masses --      1.9016                 2.0138                 1.2807
 Frc consts  --      0.1208                 0.1194                 0.0601
 IR Inten    --      1.2376                 1.2947                 1.3857

                     28                     29                     30
                      A                      A                      A
 Frequencies --   -263.5305              -235.1879              -199.1967
 Red. masses --      1.7894                 2.0613                 2.3287
 Frc consts  --      0.0732                 0.0672                 0.0544
 IR Inten    --      1.6710                 6.1127                 2.0265

                     31                     32                     33
                      A                      A                      A
 Frequencies --   -130.9227              -119.5286               -85.9045
 Red. masses --      1.9495                 3.4981                 2.2240
 Frc consts  --      0.0197                 0.0294                 0.0097
 IR Inten    --      3.8307                 0.6001                 0.6917

                     34                     35                     36
                      A                      A                      A
 Frequencies --    -53.3122                55.0125               128.4878
 Red. masses --      3.9619                 5.6097                 3.5313
 Frc consts  --      0.0066                 0.0100                 0.0343
 IR Inten    --      2.2934                 0.2143                 2.5881

                     37                     38                     39
                      A                      A                      A
 Frequencies --    156.2158               175.6744               185.0242
 Red. masses --      7.4779                 2.7109                 2.0726
 Frc consts  --      0.1075                 0.0493                 0.0418
 IR Inten    --      0.1612                 0.8949                 4.6291

                     40                     41                     42
                      A                      A                      A
 Frequencies --    233.7450               247.5194               255.6500
 Red. masses --      1.7554                 3.9190                 3.0436
 Frc consts  --      0.0565                 0.1415                 0.1172
 IR Inten    --      0.6874                 0.9801                 1.2550

                     43                     44                     45
                      A                      A                      A
 Frequencies --    299.1080               314.7684               389.2345
 Red. masses --      2.0073                 1.8882                 2.8990
 Frc consts  --      0.1058                 0.1102                 0.2588
 IR Inten    --      1.0006                 1.5692                 0.5121

                     46                     47                     48
                      A                      A                      A
 Frequencies --    434.3953               445.7456               465.6759
 Red. masses --      1.8122                 3.2099                 2.2971
 Frc consts  --      0.2015                 0.3758                 0.2935
 IR Inten    --      1.6620                 7.0363                 2.0259

                     49                     50                     51
                      A                      A                      A
 Frequencies --    481.0058               499.4685               513.3761
 Red. masses --      3.2098                 5.9721                 3.9407
 Frc consts  --      0.4376                 0.8778                 0.6119
 IR Inten    --      1.5428                 1.4728                 1.2673

                     52                     53                     54
                      A                      A                      A
 Frequencies --    555.6801               583.6998               597.6164
 Red. masses --      3.1357                 2.9569                 6.8981
 Frc consts  --      0.5705                 0.5936                 1.4515
 IR Inten    --      4.2365                18.4105                 4.5445

                     55                     56                     57
                      A                      A                      A
 Frequencies --    625.8940               649.5292               682.4424
 Red. masses --      4.0565                 1.6487                 6.6296
 Frc consts  --      0.9363                 0.4098                 1.8192
 IR Inten    --      0.1207                 0.8058                 6.9395

                     58                     59                     60
                      A                      A                      A
 Frequencies --    700.5072               701.9426               707.7207
 Red. masses --      1.2257                 1.2349                 2.1067
 Frc consts  --      0.3544                 0.3585                 0.6217
 IR Inten    --      6.3420                17.7625                13.5163

                     61                     62                     63
                      A                      A                      A
 Frequencies --    710.4121               738.1989               744.0508
 Red. masses --      2.4968                 1.4083                 2.1111
 Frc consts  --      0.7424                 0.4522                 0.6886
 IR Inten    --     12.0382                10.1626                 0.6170

                     64                     65                     66
                      A                      A                      A
 Frequencies --    768.4960               777.0705               777.9823
 Red. masses --      3.7947                 1.6746                 2.4614
 Frc consts  --      1.3204                 0.5958                 0.8778
 IR Inten    --      1.6861                 5.5547                42.3042

                     67                     68                     69
                      A                      A                      A
 Frequencies --    803.4575               831.5276               836.8248
 Red. masses --      1.9232                 4.5548                 2.9855
 Frc consts  --      0.7315                 1.8555                 1.2318
 IR Inten    --     40.4689                 2.1790                 2.9247

                     70                     71                     72
                      A                      A                      A
 Frequencies --    838.5868               854.2516               862.6952
 Red. masses --      1.4909                 1.3164                 2.1094
 Frc consts  --      0.6177                 0.5660                 0.9250
 IR Inten    --      0.6996                11.6892                20.1788

                     73                     74                     75
                      A                      A                      A
 Frequencies --    894.7838               904.0238               911.0215
 Red. masses --      1.6578                 2.1486                 2.0742
 Frc consts  --      0.7820                 1.0346                 1.0143
 IR Inten    --      2.0228                 1.1718                 4.1600

                     76                     77                     78
                      A                      A                      A
 Frequencies --    945.0231               962.5807               966.9991
 Red. masses --      2.4286                 1.4703                 1.3990
 Frc consts  --      1.2779                 0.8027                 0.7708
 IR Inten    --     10.5760                 1.1589                 2.1172

                     79                     80                     81
                      A                      A                      A
 Frequencies --    975.5130               978.6634               981.5251
 Red. masses --      1.5534                 3.6151                 2.4486
 Frc consts  --      0.8709                 2.0400                 1.3899
 IR Inten    --      3.6532                 6.6640                 4.0632

                     82                     83                     84
                      A                      A                      A
 Frequencies --    999.0070              1025.6045              1036.4016
 Red. masses --      2.5797                 2.0546                 2.2430
 Frc consts  --      1.5169                 1.2733                 1.4195
 IR Inten    --     10.3523                 2.0990                 3.2051

                     85                     86                     87
                      A                      A                      A
 Frequencies --   1069.3059              1074.6527              1078.8057
 Red. masses --      5.8564                 2.1309                 2.0609
 Frc consts  --      3.9454                 1.4500                 1.4132
 IR Inten    --     26.7503                12.4032                 3.8707

                     88                     89                     90
                      A                      A                      A
 Frequencies --   1084.6985              1094.1268              1096.9957
 Red. masses --      1.8698                 1.5336                 1.3123
 Frc consts  --      1.2962                 1.0817                 0.9305
 IR Inten    --     21.6853                13.9562                 3.9039

                     91                     92                     93
                      A                      A                      A
 Frequencies --   1099.5579              1106.7053              1108.9128
 Red. masses --      1.2036                 1.6927                 1.7001
 Frc consts  --      0.8573                 1.2215                 1.2317
 IR Inten    --      9.5270                 2.2403                 4.7715

                     94                     95                     96
                      A                      A                      A
 Frequencies --   1122.0263              1123.5767              1138.4960
 Red. masses --      1.0468                 1.4346                 1.3070
 Frc consts  --      0.7765                 1.0671                 0.9981
 IR Inten    --      0.0954                 1.8393                13.8712

                     97                     98                     99
                      A                      A                      A
 Frequencies --   1152.3383              1156.2493              1168.6537
 Red. masses --      1.9032                 1.9165                 1.4588
 Frc consts  --      1.4890                 1.5096                 1.1739
 IR Inten    --     27.3629                32.7309               196.8167

                    100                    101                    102
                      A                      A                      A
 Frequencies --   1173.2918              1180.3152              1198.0425
 Red. masses --      2.1165                 1.4743                 1.9389
 Frc consts  --      1.7166                 1.2101                 1.6397
 IR Inten    --     16.0584                 7.5270                 5.4864

                    103                    104                    105
                      A                      A                      A
 Frequencies --   1220.5606              1221.4237              1227.0841
 Red. masses --      4.5858                 5.8056                 2.8594
 Frc consts  --      4.0251                 5.1030                 2.5368
 IR Inten    --      5.1162                12.0914                65.1678

                    106                    107                    108
                      A                      A                      A
 Frequencies --   1233.9981              1240.5217              1259.9965
 Red. masses --      2.6560                 6.4270                 3.9398
 Frc consts  --      2.3830                 5.8273                 3.6852
 IR Inten    --    114.9416                13.4631                53.3258

                    109                    110                    111
                      A                      A                      A
 Frequencies --   1262.1908              1272.0895              1409.4241
 Red. masses --      3.4615                 4.2215                10.5706
 Frc consts  --      3.2491                 4.0249                12.3718
 IR Inten    --      0.5088                 7.0566               108.0012

                    112                    113                    114
                      A                      A                      A
 Frequencies --   1480.3240              1500.7310              1604.1716
 Red. masses --     10.6209                10.4400                10.3139
 Frc consts  --     13.7128                13.8534                15.6377
 IR Inten    --    427.4245               215.7712               138.7037

                    115                    116                    117
                      A                      A                      A
 Frequencies --   1658.0556              1688.1077              4104.9257
 Red. masses --      9.9820                 9.9560                 1.0866
 Frc consts  --     16.1683                16.7162                10.7881
 IR Inten    --    104.9471               213.5535                 8.2542

                    118                    119                    120
                      A                      A                      A
 Frequencies --   4123.7589              4128.9503              4129.2025
 Red. masses --      1.0864                 1.0869                 1.0871
 Frc consts  --     10.8853                10.9170                10.9205
 IR Inten    --     15.4429                15.6057                 6.4471

                    121                    122                    123
                      A                      A                      A
 Frequencies --   4167.0291              4176.4991              4183.2648
 Red. masses --      1.0582                 1.0598                 1.0601
 Frc consts  --     10.8258                10.8914                10.9304
 IR Inten    --     90.7014                26.6271                12.6826

                    124                    125                    126
                      A                      A                      A
 Frequencies --   4185.6237              4189.2829              4231.8582
 Red. masses --      1.0584                 1.0601                 1.0321
 Frc consts  --     10.9253                10.9612                10.8901
 IR Inten    --     19.6701                18.4728                16.5953

                    127                    128                    129
                      A                      A                      A
 Frequencies --   4235.4481              4236.6353              4274.6488
 Red. masses --      1.0319                 1.0322                 1.1096
 Frc consts  --     10.9066                10.9162                11.9458
 IR Inten    --     18.4922                10.6167                10.7882

                    130                    131                    132
                      A                      A                      A
 Frequencies --   4287.7750              4294.8283              4300.3898
 Red. masses --      1.1084                 1.1087                 1.1082
 Frc consts  --     12.0064                12.0489                12.0750
 IR Inten    --     16.7128                 8.2414                14.9024

                    133                    134                    135
                      A                      A                      A
 Frequencies --   4301.2269              4417.3991              4424.9225
 Red. masses --      1.1106                 1.1064                 1.1068
 Frc consts  --     12.1053                12.7205                12.7678
 IR Inten    --     22.6333                 9.5552                 6.9517

                    136                    137                    138
                      A                      A                      A
 Frequencies --   4425.3487              4430.5605              4430.6699
 Red. masses --      1.1068                 1.1069                 1.1067
 Frc consts  --     12.7707                12.8015                12.8004
 IR Inten    --      6.9284                 9.0947                 8.1611

                    139                    140                    141
                      A                      A                      A
 Frequencies --   4430.9698              4727.5394              4741.5647
 Red. masses --      1.1065                 1.0851                 1.0867
 Frc consts  --     12.8002                14.2888                14.3948
 IR Inten    --     11.7424                 0.0399                13.0480

                    142                    143                    144
                      A                      A                      A
 Frequencies --   4749.4991              4757.6081              4763.5238
 Red. masses --      1.0884                 1.0888                 1.0891
 Frc consts  --     14.4650                14.5206                14.5604
 IR Inten    --     31.4057                14.7258                 9.6396

 - Thermochemistry -
 -------------------
 Temperature   298.150 Kelvin.  Pressure   1.00000 Atm.
 Atom     1 has atomic number  7 and mass  14.00307

 Molecular mass:   302.21200 amu.
 Principal axes and moments of inertia in atomic units:
                           1         2         3
     Eigenvalues --  3499.11082********************
           X            0.99997   0.00709  -0.00330
           Y           -0.00704   0.99983   0.01692
           Z            0.00341  -0.01690   0.99985
 This molecule is an asymmetric top.
 Rotational symmetry number  1.
 Warning -- assumption of classical behavior for rotation
           may cause significant error
 Rotational temperatures (Kelvin)      0.02475     0.00517     0.00458
 Rotational constants (GHZ):           0.51577     0.10773     0.09553
   34 imaginary frequencies ignored.
 Zero-point vibrational energy    1157783.1 (Joules/Mol)
                                  276.71681 (Kcal/Mol)
 Warning -- explicit consideration of  20 degrees of freedom as
           vibrations may cause significant error
 Vibrational temperatures:     79.15   184.87   224.76   252.76   266.21
          (Kelvin)            336.31   356.13   367.82   430.35   452.88
                              560.02   625.00   641.33   670.00   692.06
                              718.62   738.63   799.50   839.81   859.84
                              900.52   934.53   981.88  1007.87  1009.94
                             1018.25  1022.12  1062.10  1070.52  1105.69
                             1118.03  1119.34  1156.00  1196.38  1204.00
                             1206.54  1229.08  1241.23  1287.39  1300.69
                             1310.76  1359.68  1384.94  1391.30  1403.55
                             1408.08  1412.20  1437.35  1475.62  1491.15
                             1538.49  1546.19  1552.16  1560.64  1574.20
                             1578.33  1582.02  1592.30  1595.48  1614.35
                             1616.58  1638.04  1657.96  1663.58  1681.43
                             1688.11  1698.21  1723.72  1756.11  1757.36
                             1765.50  1775.45  1784.83  1812.85  1816.01
                             1830.25  2027.85  2129.86  2159.22  2308.05
                             2385.57  2428.81  5906.07  5933.17  5940.64
                             5941.00  5995.43  6009.05  6018.79  6022.18
                             6027.44  6088.70  6093.87  6095.57  6150.27
                             6169.15  6179.30  6187.30  6188.51  6355.65
                             6366.48  6367.09  6374.59  6374.75  6375.18
                             6801.87  6822.05  6833.47  6845.14  6853.65

 Zero-point correction=                           0.440976 (Hartree/Particle)
 Thermal correction to Energy=                    0.454513
 Thermal correction to Enthalpy=                  0.455457
 Thermal correction to Gibbs Free Energy=         0.400627
 Sum of electronic and zero-point Energies=           -943.569421
 Sum of electronic and thermal Energies=              -943.555884
 Sum of electronic and thermal Enthalpies=            -943.554940
 Sum of electronic and thermal Free Energies=         -943.609770

                     E (Thermal)             CV                S
                      KCal/Mol        Cal/Mol-Kelvin    Cal/Mol-Kelvin
 Total                  285.211             61.450            115.399
 Electronic               0.000              0.000              0.000
 Translational            0.889              2.981             43.015
 Rotational               0.889              2.981             35.359
 Vibrational            283.434             55.488             37.026
 Vibration     1          0.596              1.976              4.629
 Vibration     2          0.611              1.925              2.969
 Vibration     3          0.620              1.896              2.595
 Vibration     4          0.628              1.872              2.374
 Vibration     5          0.631              1.860              2.277
 Vibration     6          0.654              1.789              1.850
 Vibration     7          0.661              1.767              1.748
 Vibration     8          0.666              1.753              1.691
 Vibration     9          0.692              1.675              1.422
 Vibration    10          0.702              1.645              1.337
 Vibration    11          0.757              1.493              1.003
 Vibration    12          0.795              1.395              0.844
 Vibration    13          0.805              1.370              0.809
 Vibration    14          0.823              1.326              0.750
 Vibration    15          0.837              1.292              0.707
 Vibration    16          0.855              1.251              0.659
 Vibration    17          0.868              1.220              0.626
 Vibration    18          0.911              1.127              0.533
 Vibration    19          0.941              1.067              0.479
 Vibration    20          0.956              1.037              0.454

 Normal termination of Gaussian 16 at Mon Mar  6 12:27:14 2023.
