 Gaussian 16, Revision C.01,
 Gaussian 16:  ES64L-G16RevC.01  3-Jul-2019

 ----------------------------------------------------------------------
 #p pop=(regular,nbo,savenbos) freq=noraman def2svp empiricaldispersion
 =gd3bj output=wfx pbe1pbe
 ----------------------------------------------------------------------

 ----------------------------------------
 NULYOI_Complex_7_Ligand_2_ON_Cu_oriented
 ----------------------------------------
 Symbolic Z-matrix:
 Charge = -1 Multiplicity = 1

                         Standard orientation:
 ---------------------------------------------------------------------
 Center     Atomic      Atomic             Coordinates (Angstroms)
 Number     Number       Type             X           Y           Z
 ---------------------------------------------------------------------
      1          8           0        3.578123    0.293455    1.595337
      2          8           0        5.018585    0.443629   -0.063849
      3          7           0        2.497809   -1.951477    0.778750
      4          6           0        4.049716   -0.073356    0.455810
      5          6           0        3.301262   -1.203250   -0.249749
      6          1           0        1.945557   -2.554370    0.447444
      7          1           0        3.084971   -2.394451    1.137044
      8          6           0        2.433953   -0.642255   -1.361988
      9          6           0        1.266052    0.212911   -0.886603
     10          1           0        3.021693   -0.040581   -2.077533
     11          1           0        2.155729   -1.471464   -1.792838
     12          6           0        0.052606   -0.389407   -0.657312
     13          1           0       -0.061509   -1.277612   -0.744250
     14          8           0       -1.972446    2.446625    0.481221
     15          6           0       -1.043818    0.358241   -0.200511
     16          6           0       -0.901817    1.714115    0.053986
     17          6           0        0.332745    2.308848   -0.174594
     18          1           0       -1.729251    3.412643    0.801859
     19          1           0        0.370600    3.324065   -0.230345
     20         53           0       -2.848014   -0.640617    0.080619
     21          6           0        1.410104    1.556754   -0.643571
     22          1           0        2.343030    1.923047   -0.750531
     23          1           0        3.930350   -1.833535   -0.629412
 ---------------------------------------------------------------------

 SCF Done:  E(RPBE1PBE) =  -925.238486182     A.U. after   17 cycles

 The electronic state is 1-A.
 Alpha  occ. eigenvalues --  -19.15045 -18.93571 -18.91476 -14.18011 -10.19743
 Alpha  occ. eigenvalues --  -10.16937 -10.12428 -10.11862 -10.11396 -10.11319
 Alpha  occ. eigenvalues --  -10.09437 -10.09374 -10.08348  -6.79780  -4.81516
 Alpha  occ. eigenvalues --   -4.80064  -4.80044  -1.84222  -1.83721  -1.83714
 Alpha  occ. eigenvalues --   -1.82462  -1.82462  -0.96840  -0.83496  -0.78955
 Alpha  occ. eigenvalues --   -0.77538  -0.71629  -0.68888  -0.67808  -0.62232
 Alpha  occ. eigenvalues --   -0.60152  -0.55005  -0.51955  -0.47816  -0.46793
 Alpha  occ. eigenvalues --   -0.40770  -0.38660  -0.37833  -0.36737  -0.34410
 Alpha  occ. eigenvalues --   -0.33215  -0.32458  -0.31264  -0.29382  -0.27229
 Alpha  occ. eigenvalues --   -0.26678  -0.25443  -0.23890  -0.23677  -0.22426
 Alpha  occ. eigenvalues --   -0.19685  -0.18801  -0.17937  -0.17248  -0.14387
 Alpha  occ. eigenvalues --   -0.12467  -0.10114  -0.04255  -0.03780  -0.01208
 Alpha virt. eigenvalues --    0.08625   0.09560   0.12138   0.13070   0.19790
 Alpha virt. eigenvalues --    0.21846   0.24353   0.25000   0.25715   0.27518
 Alpha virt. eigenvalues --    0.29537   0.30457   0.30661   0.32803   0.33806

 Mulliken charges:
               1
     1  O   -0.459706
     2  O   -0.395852
     3  N   -0.013803
     4  C    0.075397
     5  C   -0.012859
     6  H   -0.007335
     7  H   -0.018910
     8  C    0.132724
     9  C   -0.041988
    10  H    0.019963
    11  H   -0.060310
    12  C    0.157789
    13  H   -0.175341
    14  O   -0.293121
    15  C   -0.221412
    16  C    0.170447
    17  C   -0.019398
    18  H    0.220346
    19  H   -0.053026
    20  I   -0.001138
    21  C    0.081241
    22  H   -0.013948
    23  H   -0.069759
 Sum of Mulliken charges =  -1.00000

 Dipole moment (field-independent basis, Debye):
    X=            -14.3401    Y=             -0.9628    Z=             -4.1159  Tot=             14.9501
 Quadrupole moment (field-independent basis, Debye-Ang):
   XX=           -188.1267   YY=            -88.8801   ZZ=           -114.0152
   XY=            -12.3246   XZ=            -15.6073   YZ=              1.2787

  Exact polarizability:     174.865       7.384     133.072     -16.163       5.728      88.476
 Approx polarizability:     242.697      17.936     207.709     -33.718      13.415     143.185

 Summary of Natural Population Analysis:

                                       Natural Population
                Natural  -----------------------------------------------
    Atom  No    Charge         Core      Valence    Rydberg      Total
 -----------------------------------------------------------------------
      O    1   -0.79355      1.99977     6.78516    0.00862     8.79355
      O    2   -0.77614      1.99972     6.76557    0.01085     8.77614
      N    3   -0.75727      1.99927     5.72908    0.02893     7.75727
      C    4    0.76094      1.99942     3.16291    0.07673     5.23906
      C    5   -0.08506      1.99886     4.06366    0.02254     6.08506
      H    6    0.28991      0.00000     0.70354    0.00656     0.71009
      H    7    0.28326      0.00000     0.70934    0.00740     0.71674
      C    8   -0.42396      1.99901     4.40849    0.01646     6.42396
      C    9   -0.01477      1.99896     3.99378    0.02204     6.01477
      H   10    0.23450      0.00000     0.75919    0.00631     0.76550
      H   11    0.18232      0.00000     0.81202    0.00566     0.81768
      C   12   -0.14326      1.99881     4.12569    0.01876     6.14326
      H   13    0.16378      0.00000     0.83281    0.00342     0.83622
      O   14   -0.71297      1.99968     6.70489    0.00839     8.71297
      C   15   -0.25981      1.99873     4.23802    0.02305     6.25981
      C   16    0.31210      1.99841     3.66482    0.02467     5.68790
      C   17   -0.27474      1.99894     4.26113    0.01466     6.27474
      H   18    0.48341      0.00000     0.51102    0.00557     0.51659
      H   19    0.19949      0.00000     0.79704    0.00347     0.80051
      I   20    0.11033     45.99776     6.87146    0.02046    52.88967
      C   21   -0.15571      1.99893     4.14039    0.01639     6.15571
      H   22    0.22589      0.00000     0.77033    0.00378     0.77411
      H   23    0.15131      0.00000     0.84199    0.00670     0.84869
 =======================================================================
   * Total *   -1.00000     71.98627    75.65231    0.36142   148.00000

 ******   13 imaginary frequencies (negative Signs) ******

                      1                      2                      3
                      A                      A                      A
 Frequencies --  -2358.6234             -1980.7296             -1663.6402
 Red. masses --      1.0704                 1.0834                 1.0585
 Frc consts  --      3.5083                 2.5043                 1.7261
 IR Inten    --     75.3048                52.3467                 9.6474

                      4                      5                      6
                      A                      A                      A
 Frequencies --  -1488.3065             -1221.1794              -755.6388
 Red. masses --      1.0620                 1.0586                 1.0660
 Frc consts  --      1.3860                 0.9301                 0.3586
 IR Inten    --     59.1464                 7.7779                 0.4135

                      7                      8                      9
                      A                      A                      A
 Frequencies --   -611.4400              -584.7171              -483.1968
 Red. masses --      1.0757                 1.2308                 1.4998
 Frc consts  --      0.2369                 0.2479                 0.2063
 IR Inten    --     29.5238                 2.3191                26.7942

                     10                     11                     12
                      A                      A                      A
 Frequencies --   -406.1091              -352.7681              -267.7952
 Red. masses --      1.3384                 1.1711                 1.9015
 Frc consts  --      0.1301                 0.0859                 0.0803
 IR Inten    --     24.6522                 3.2990                 4.2898

                     13                     14                     15
                      A                      A                      A
 Frequencies --   -158.4576                76.4869               122.0765
 Red. masses --     14.4657                11.3328                 9.7214
 Frc consts  --      0.2140                 0.0391                 0.0854
 IR Inten    --      0.7859                 3.8699                27.6122

                     16                     17                     18
                      A                      A                      A
 Frequencies --    154.5800               172.5467               218.9628
 Red. masses --     10.4871                 8.0674                10.4491
 Frc consts  --      0.1476                 0.1415                 0.2952
 IR Inten    --      1.5069                 0.3780                 0.6766

                     19                     20                     21
                      A                      A                      A
 Frequencies --    243.5521               307.0887               376.7640
 Red. masses --      7.8846                 7.4246                 3.8783
 Frc consts  --      0.2756                 0.4125                 0.3244
 IR Inten    --      0.5493                 1.3758                 1.3602

                     22                     23                     24
                      A                      A                      A
 Frequencies --    421.4606               476.8698               495.6750
 Red. masses --      3.8168                 4.8732                 4.3370
 Frc consts  --      0.3994                 0.6529                 0.6278
 IR Inten    --     12.4662                 6.0441                 5.5947

                     25                     26                     27
                      A                      A                      A
 Frequencies --    560.1091               577.0482               585.1354
 Red. masses --      5.7683                 3.3452                 4.2132
 Frc consts  --      1.0662                 0.6563                 0.8499
 IR Inten    --      9.5047                 7.8281                 2.0346

                     28                     29                     30
                      A                      A                      A
 Frequencies --    626.5689               655.3073               719.2997
 Red. masses --      3.3244                 4.6366                 5.4062
 Frc consts  --      0.7690                 1.1731                 1.6480
 IR Inten    --     12.8922                 5.6197                 5.8821

                     31                     32                     33
                      A                      A                      A
 Frequencies --    733.6769               770.9388               787.5163
 Red. masses --      4.6891                 5.1765                 2.0446
 Frc consts  --      1.4871                 1.8127                 0.7471
 IR Inten    --      2.3598                10.9148                26.5814

                     34                     35                     36
                      A                      A                      A
 Frequencies --    810.9142               865.5019               874.1134
 Red. masses --      6.2502                 3.1560                 5.2501
 Frc consts  --      2.4216                 1.3929                 2.3635
 IR Inten    --     21.7375                 3.0465                19.3237

                     37                     38                     39
                      A                      A                      A
 Frequencies --    958.3392               974.0517               983.2051
 Red. masses --      3.9117                 1.0818                 3.1387
 Frc consts  --      2.1167                 0.6047                 1.7877
 IR Inten    --      1.5525               101.4294                 5.7552

                     40                     41                     42
                      A                      A                      A
 Frequencies --    995.6037              1083.3433              1150.4157
 Red. masses --      1.5797                 4.4402                 5.0391
 Frc consts  --      0.9226                 3.0703                 3.9293
 IR Inten    --     16.4353                 4.8983                33.6883

                     43                     44                     45
                      A                      A                      A
 Frequencies --   1170.7154              1269.6651              1299.4193
 Red. masses --      2.4743                 2.5450                 4.0484
 Frc consts  --      1.9981                 2.4172                 4.0275
 IR Inten    --      8.3389                12.0727                33.9258

                     46                     47                     48
                      A                      A                      A
 Frequencies --   1340.8684              1367.1082              1398.7031
 Red. masses --      1.9236                 1.8910                 2.3676
 Frc consts  --      2.0376                 2.0823                 2.7290
 IR Inten    --     46.9348                 4.9642                82.9998

                     49                     50                     51
                      A                      A                      A
 Frequencies --   1403.6621              1508.8887              1528.8883
 Red. masses --      9.6261                 4.4027                 3.0148
 Frc consts  --     11.1744                 5.9059                 4.1520
 IR Inten    --    164.0514               241.4629                 5.0177

                     52                     53                     54
                      A                      A                      A
 Frequencies --   1652.3886              1728.4407              1863.1441
 Red. masses --     10.4201                 8.3019                12.8147
 Frc consts  --     16.7627                14.6130                26.2091
 IR Inten    --     37.2755                 0.2427               467.5393

                     55                     56                     57
                      A                      A                      A
 Frequencies --   2856.6037              3073.4482              3961.9778
 Red. masses --      1.0666                 1.0782                 1.0893
 Frc consts  --      5.1280                 6.0009                10.0741
 IR Inten    --     60.7267                18.4345                10.3281

                     58                     59                     60
                      A                      A                      A
 Frequencies --   4079.9395              4415.4947              4491.9863
 Red. masses --      1.0916                 1.0868                 1.0871
 Frc consts  --     10.7058                12.4844                12.9236
 IR Inten    --      2.2901                16.7669                45.0217

                     61                     62                     63
                      A                      A                      A
 Frequencies --   5445.2272              5462.8589              6652.9177
 Red. masses --      1.0693                 1.0889                 1.0752
 Frc consts  --     18.6808                19.1468                28.0386
 IR Inten    --      4.8881                 1.2560                10.2099

 - Thermochemistry -
 -------------------
 Temperature   298.150 Kelvin.  Pressure   1.00000 Atm.
 Atom     1 has atomic number  8 and mass  15.99491

 Molecular mass:   305.95864 amu.
 Principal axes and moments of inertia in atomic units:
                           1         2         3
     Eigenvalues --  1839.534038565.772689612.96342
           X            0.99952  -0.03069  -0.00384
           Y            0.03072   0.99949   0.00870
           Z            0.00357  -0.00882   0.99995
 This molecule is an asymmetric top.
 Rotational symmetry number  1.
 Warning -- assumption of classical behavior for rotation
           may cause significant error
 Rotational temperatures (Kelvin)      0.04708     0.01011     0.00901
 Rotational constants (GHZ):           0.98109     0.21069     0.18774
   13 imaginary frequencies ignored.
 Zero-point vibrational energy     453082.6 (Joules/Mol)
                                  108.28934 (Kcal/Mol)
 Warning -- explicit consideration of  14 degrees of freedom as
           vibrations may cause significant error
 Vibrational temperatures:    110.05   175.64   222.41   248.26   315.04
          (Kelvin)            350.42   441.83   542.08   606.39   686.11
                              713.17   805.87   830.24   841.88   901.49
                              942.84  1034.91  1055.60  1109.21  1133.06
                             1166.72  1245.26  1257.65  1378.84  1401.44
                             1414.61  1432.45  1558.69  1655.19  1684.40
                             1826.76  1869.57  1929.21  1966.96  2012.42
                             2019.56  2170.95  2199.73  2377.42  2486.84
                             2680.65  4110.02  4422.01  5700.40  5870.12
                             6352.91  6462.97  7834.47  7859.84  9572.06

 Zero-point correction=                           0.172570 (Hartree/Particle)
 Thermal correction to Energy=                    0.182317
 Thermal correction to Enthalpy=                  0.183262
 Thermal correction to Gibbs Free Energy=         0.135048
 Sum of electronic and zero-point Energies=           -925.065916
 Sum of electronic and thermal Energies=              -925.056169
 Sum of electronic and thermal Enthalpies=            -925.055225
 Sum of electronic and thermal Free Energies=         -925.103438

                     E (Thermal)             CV                S
                      KCal/Mol        Cal/Mol-Kelvin    Cal/Mol-Kelvin
 Total                  114.406             37.561            101.474
 Electronic               0.000              0.000              0.000
 Translational            0.889              2.981             43.051
 Rotational               0.889              2.981             33.382
 Vibrational            112.628             31.599             25.041
 Vibration     1          0.599              1.965              3.979
 Vibration     2          0.610              1.931              3.067
 Vibration     3          0.620              1.898              2.615
 Vibration     4          0.626              1.876              2.408
 Vibration     5          0.647              1.812              1.968
 Vibration     6          0.659              1.773              1.777
 Vibration     7          0.697              1.660              1.378
 Vibration     8          0.747              1.520              1.052
 Vibration     9          0.784              1.424              0.887
 Vibration    10          0.833              1.301              0.719
 Vibration    11          0.851              1.260              0.669
 Vibration    12          0.916              1.118              0.524
 Vibration    13          0.934              1.081              0.491
 Vibration    14          0.942              1.064              0.476

 Normal termination of Gaussian 16 at Mon Mar  6 10:42:41 2023.
