 Gaussian 16, Revision C.01,
 Gaussian 16:  ES64L-G16RevC.01  3-Jul-2019

 ----------------------------------------------------------------------
 #p pop=(regular,nbo,savenbos) freq=noraman def2svp empiricaldispersion
 =gd3bj output=wfx pbe1pbe
 ----------------------------------------------------------------------

 ----------------------------------------
 NUNTAS_Complex_5_Ligand_1_ON_Cu_oriented
 ----------------------------------------
 Symbolic Z-matrix:
 Charge = -1 Multiplicity = 1

                         Standard orientation:
 ---------------------------------------------------------------------
 Center     Atomic      Atomic             Coordinates (Angstroms)
 Number     Number       Type             X           Y           Z
 ---------------------------------------------------------------------
      1          8           0        2.367597    0.551405    0.239541
      2          8           0        1.595122   -1.409013   -0.436774
      3          7           0       -0.005017    1.722720    0.257454
      4          1           0       -0.418634    1.673917    1.014170
      5          1           0       -0.503555    2.283639   -0.311291
      6          6           0        1.439544   -0.215521   -0.185921
      7          6           0        0.074656    0.428880   -0.452203
      8          1           0        0.035679    0.627871   -1.411256
      9          6           0       -1.080715   -0.517777   -0.148635
     10          1           0       -0.914335   -1.374860   -0.594456
     11          6           0       -2.413547    0.023666   -0.610612
     12          1           0       -3.110517   -0.590678   -0.365562
     13          1           0       -2.402583    0.129572   -1.564618
     14          1           0       -2.575301    0.873515   -0.195282
     15          8           0       -1.179987   -0.740802    1.258793
     16          1           0       -0.457119   -1.210227    1.517860
 ---------------------------------------------------------------------

 SCF Done:  E(RPBE1PBE) =  -436.788280729     A.U. after   14 cycles

 The electronic state is 1-A.
 Alpha  occ. eigenvalues --  -19.05087 -18.92788 -18.90756 -14.18035 -10.11084
 Alpha  occ. eigenvalues --  -10.08637 -10.06431 -10.05581  -0.89859  -0.82054
 Alpha  occ. eigenvalues --   -0.75785  -0.71039  -0.66231  -0.56512  -0.47848
 Alpha  occ. eigenvalues --   -0.40010  -0.38146  -0.35795  -0.30650  -0.29555
 Alpha  occ. eigenvalues --   -0.29194  -0.26426  -0.25414  -0.22014  -0.19869
 Alpha  occ. eigenvalues --   -0.18040  -0.17144  -0.14208  -0.09023  -0.03271
 Alpha  occ. eigenvalues --   -0.03131  -0.00533
 Alpha virt. eigenvalues --    0.19961   0.24948   0.25032   0.25872   0.28771
 Alpha virt. eigenvalues --    0.29483   0.31526   0.32815   0.33605   0.36704
 Alpha virt. eigenvalues --    0.37479   0.43677   0.43800   0.47822   0.54037

 Mulliken charges:
               1
     1  O   -0.447158
     2  O   -0.421120
     3  N   -0.072350
     4  H    0.005756
     5  H    0.028434
     6  C    0.102932
     7  C   -0.047020
     8  H   -0.053192
     9  C    0.113730
    10  H   -0.052352
    11  C    0.227745
    12  H   -0.050552
    13  H   -0.054567
    14  H   -0.078724
    15  O   -0.334778
    16  H    0.133216
 Sum of Mulliken charges =  -1.00000

 Dipole moment (field-independent basis, Debye):
    X=             -8.2809    Y=              0.9984    Z=             -0.9055  Tot=              8.3899
 Quadrupole moment (field-independent basis, Debye-Ang):
   XX=            -74.4433   YY=            -56.0978   ZZ=            -48.4709
   XY=             -1.1527   XZ=              2.0533   YZ=             -3.5025

  Exact polarizability:      62.922       0.908      54.880       3.748       1.651      45.457
 Approx polarizability:      78.307       4.806      80.368       5.763       5.469      64.569

 Summary of Natural Population Analysis:

                                       Natural Population
                Natural  -----------------------------------------------
    Atom  No    Charge         Core      Valence    Rydberg      Total
 -----------------------------------------------------------------------
      O    1   -0.78464      1.99977     6.77635    0.00852     8.78464
      O    2   -0.80132      1.99973     6.79133    0.01026     8.80132
      N    3   -0.78722      1.99941     5.76328    0.02453     7.78722
      H    4    0.30357      0.00000     0.68774    0.00869     0.69643
      H    5    0.30912      0.00000     0.68462    0.00626     0.69088
      C    6    0.76891      1.99944     3.15568    0.07596     5.23109
      C    7   -0.14458      1.99888     4.12082    0.02488     6.14458
      H    8    0.17572      0.00000     0.81970    0.00458     0.82428
      C    9    0.17084      1.99893     3.80576    0.02447     5.82916
      H   10    0.15872      0.00000     0.83121    0.01007     0.84128
      C   11   -0.57217      1.99913     4.56220    0.01083     6.57217
      H   12    0.17972      0.00000     0.81591    0.00436     0.82028
      H   13    0.17828      0.00000     0.81916    0.00256     0.82172
      H   14    0.17055      0.00000     0.82033    0.00912     0.82945
      O   15   -0.78089      1.99975     6.76706    0.01408     8.78089
      H   16    0.45538      0.00000     0.53688    0.00774     0.54462
 =======================================================================
   * Total *   -1.00000     15.99505    47.75802    0.24693    64.00000

 ******   12 imaginary frequencies (negative Signs) ******

                      1                      2                      3
                      A                      A                      A
 Frequencies --  -1816.9148             -1448.0378             -1377.3022
 Red. masses --      1.0700                 1.0692                 1.0223
 Frc consts  --      2.0811                 1.3210                 1.1426
 IR Inten    --    101.9667                72.0133                 1.7893

                      4                      5                      6
                      A                      A                      A
 Frequencies --  -1070.8704             -1030.9886             -1016.6770
 Red. masses --      1.0678                 1.0720                 1.0708
 Frc consts  --      0.7215                 0.6713                 0.6521
 IR Inten    --    115.6138                 3.8532                 2.6174

                      7                      8                      9
                      A                      A                      A
 Frequencies --   -744.8049              -446.0923              -347.8536
 Red. masses --      1.1212                 1.3550                 1.8201
 Frc consts  --      0.3665                 0.1589                 0.1298
 IR Inten    --     83.6752                18.2945                20.8118

                     10                     11                     12
                      A                      A                      A
 Frequencies --   -302.2261              -276.8168               -76.3708
 Red. masses --      1.9863                 2.2625                 4.0531
 Frc consts  --      0.1069                 0.1021                 0.0139
 IR Inten    --     13.0507                22.6230                19.9277

                     13                     14                     15
                      A                      A                      A
 Frequencies --    277.4841               322.3888               373.4151
 Red. masses --      1.2499                 3.9718                 3.6515
 Frc consts  --      0.0567                 0.2432                 0.3000
 IR Inten    --     31.9689                 4.9135                12.4393

                     16                     17                     18
                      A                      A                      A
 Frequencies --    461.0962               487.1595               622.2773
 Red. masses --      5.8315                 4.7266                 2.3891
 Frc consts  --      0.7305                 0.6609                 0.5451
 IR Inten    --      3.7822                 3.9543                21.8114

                     19                     20                     21
                      A                      A                      A
 Frequencies --    687.0054               771.0742               797.6392
 Red. masses --      2.2017                 3.1105                 3.6666
 Frc consts  --      0.6123                 1.0896                 1.3744
 IR Inten    --     20.4937                48.5290                32.8528

                     22                     23                     24
                      A                      A                      A
 Frequencies --    832.6176               869.0656               903.2702
 Red. masses --      2.4283                 1.7867                 2.3262
 Frc consts  --      0.9918                 0.7951                 1.1182
 IR Inten    --     11.3721                 4.7579                 6.3198

                     25                     26                     27
                      A                      A                      A
 Frequencies --    972.8097               990.5543               999.2966
 Red. masses --      2.1309                 1.4483                 1.5585
 Frc consts  --      1.1882                 0.8373                 0.9169
 IR Inten    --     14.9866                13.2000                 1.2500

                     28                     29                     30
                      A                      A                      A
 Frequencies --   1089.3061              1149.6216              1193.7468
 Red. masses --      2.6472                 4.8931                 2.1711
 Frc consts  --      1.8507                 3.8102                 1.8228
 IR Inten    --     10.6051                29.9615                36.5678

                     31                     32                     33
                      A                      A                      A
 Frequencies --   1223.6760              1269.4894              1434.3418
 Red. masses --      2.4711                 4.6214                10.7533
 Frc consts  --      2.1801                 4.3881                13.0346
 IR Inten    --     13.1832                18.6463               238.1728

                     34                     35                     36
                      A                      A                      A
 Frequencies --   1804.3559              4356.9408              4365.1593
 Red. masses --     12.8529                 1.0866                 1.0876
 Frc consts  --     24.6546                12.1531                12.2102
 IR Inten    --    415.2517                12.7260                18.2659

                     37                     38                     39
                      A                      A                      A
 Frequencies --   4464.2647              4534.5992              4664.9785
 Red. masses --      1.0322                 1.0679                 1.1063
 Frc consts  --     12.1207                12.9378                14.1851
 IR Inten    --     18.3337                 6.7353                10.6380

                     40                     41                     42
                      A                      A                      A
 Frequencies --   4677.5855              4819.4649              5798.8471
 Red. masses --      1.1062                 1.0667                 1.0757
 Frc consts  --     14.2607                14.5985                21.3128
 IR Inten    --      8.1303                57.7405                 8.7126

 - Thermochemistry -
 -------------------
 Temperature   298.150 Kelvin.  Pressure   1.00000 Atm.
 Atom     1 has atomic number  8 and mass  15.99491

 Molecular mass:   118.05042 amu.
 Principal axes and moments of inertia in atomic units:
                           1         2         3
     Eigenvalues --   543.009091180.568951393.95878
           X            0.99976  -0.00475   0.02126
           Y            0.00515   0.99981  -0.01888
           Z           -0.02117   0.01899   0.99960
 This molecule is an asymmetric top.
 Rotational symmetry number  1.
 Warning -- assumption of classical behavior for rotation
           may cause significant error
 Rotational temperatures (Kelvin)      0.15951     0.07337     0.06214
 Rotational constants (GHZ):           3.32359     1.52870     1.29469
   12 imaginary frequencies ignored.
 Zero-point vibrational energy     342212.9 (Joules/Mol)
                                   81.79085 (Kcal/Mol)
 Warning -- explicit consideration of   5 degrees of freedom as
           vibrations may cause significant error
 Vibrational temperatures:    399.24   463.85   537.26   663.41   700.91
          (Kelvin)            895.32   988.45  1109.40  1147.62  1197.95
                             1250.39  1299.60  1399.66  1425.19  1437.76
                             1567.27  1654.05  1717.54  1760.60  1826.51
                             2063.70  2596.07  6268.67  6280.49  6423.08
                             6524.28  6711.86  6730.00  6934.14  8343.25

 Zero-point correction=                           0.130342 (Hartree/Particle)
 Thermal correction to Energy=                    0.135672
 Thermal correction to Enthalpy=                  0.136616
 Thermal correction to Gibbs Free Energy=         0.100480
 Sum of electronic and zero-point Energies=           -436.657939
 Sum of electronic and thermal Energies=              -436.652608
 Sum of electronic and thermal Enthalpies=            -436.651664
 Sum of electronic and thermal Free Energies=         -436.687801

                     E (Thermal)             CV                S
                      KCal/Mol        Cal/Mol-Kelvin    Cal/Mol-Kelvin
 Total                   85.136             20.665             76.056
 Electronic               0.000              0.000              0.000
 Translational            0.889              2.981             40.213
 Rotational               0.889              2.981             28.282
 Vibrational             83.358             14.703              7.562
 Vibration     1          0.678              1.715              1.549
 Vibration     2          0.707              1.631              1.298
 Vibration     3          0.745              1.527              1.066
 Vibration     4          0.819              1.336              0.763
 Vibration     5          0.843              1.279              0.691

 Normal termination of Gaussian 16 at Mon Mar  6 10:27:43 2023.
