 Gaussian 16, Revision C.01,
 Gaussian 16:  ES64L-G16RevC.01  3-Jul-2019

 ----------------------------------------------------------------------
 #p pop=(regular,nbo,savenbos) freq=noraman def2svp empiricaldispersion
 =gd3bj output=wfx pbe1pbe
 ----------------------------------------------------------------------

 ----------------------------------------
 ODEMAM_Complex_1_Ligand_0_ON_Cu_oriented
 ----------------------------------------
 Symbolic Z-matrix:
 Charge = -1 Multiplicity = 1

                         Standard orientation:
 ---------------------------------------------------------------------
 Center     Atomic      Atomic             Coordinates (Angstroms)
 Number     Number       Type             X           Y           Z
 ---------------------------------------------------------------------
      1          8           0        0.661729    2.002862   -1.476182
      2          7           0       -1.310416    0.956919    0.286759
      3          6           0        1.913299   -0.650672    0.739541
      4          1           0        1.588851   -1.268797    1.399116
      5          6           0        1.023801    0.242207    0.140125
      6          6           0        1.476083    1.173095   -0.855741
      7          6           0        2.839053    1.186126   -1.148155
      8          1           0        3.163262    1.818203   -1.794435
      9          6           0        5.156537    0.349454   -0.803060
     10          1           0        5.495451    0.979625   -1.442284
     11          6           0        6.011416   -0.498136   -0.159189
     12          1           0        6.950891   -0.450750   -0.350810
     13          6           0        5.547627   -1.439470    0.765201
     14          1           0        6.168252   -2.022155    1.210932
     15          6           0        4.214997   -1.522748    1.040072
     16          1           0        3.896974   -2.179371    1.664323
     17          6           0        3.287739   -0.644920    0.414257
     18          6           0        3.752564    0.311964   -0.535216
     19          6           0       -0.324694    0.224214    0.663941
     20          1           0       -0.501544   -0.397308    1.372859
     21          6           0       -2.582797    0.813822    1.061393
     22          1           0       -2.376942    0.331735    1.866414
     23          6           0       -3.075467    2.183696    1.479049
     24          1           0       -2.353906    2.696359    1.850629
     25          1           0       -3.775047    2.095155    2.130139
     26          1           0       -3.430075    2.637796    0.712684
     27          6           0       -3.587172   -0.033848    0.276239
     28          6           0       -4.930138    0.268949    0.241571
     29          1           0       -5.242716    1.072304    0.659571
     30          6           0       -5.833449   -0.568971   -0.385932
     31          1           0       -6.762907   -0.331757   -0.411363
     32          6           0       -5.420861   -1.711103   -0.984955
     33          1           0       -6.049846   -2.303322   -1.403103
     34          6           0       -4.088103   -2.019071   -0.952229
     35          6           0       -3.189383   -1.189293   -0.326643
     36          1           0       -2.262126   -1.436710   -0.292937
     37          1           0       -3.775815   -2.814107   -1.391204
 ---------------------------------------------------------------------

 SCF Done:  E(RPBE1PBE) =  -861.819863893     A.U. after   19 cycles

 The electronic state is 1-A.
 Alpha  occ. eigenvalues --  -18.95618 -14.23603 -10.13871 -10.13794 -10.13043
 Alpha  occ. eigenvalues --  -10.12828 -10.12770 -10.12665 -10.12125 -10.11946
 Alpha  occ. eigenvalues --  -10.10773 -10.09557 -10.09457 -10.09238 -10.09188
 Alpha  occ. eigenvalues --  -10.09017 -10.08650 -10.08470 -10.08428 -10.08171
 Alpha  occ. eigenvalues --  -10.04316  -0.81488  -0.79493  -0.78382  -0.75019
 Alpha  occ. eigenvalues --   -0.71262  -0.69126  -0.68645  -0.66784  -0.65510
 Alpha  occ. eigenvalues --   -0.62501  -0.58323  -0.57400  -0.54991  -0.53310
 Alpha  occ. eigenvalues --   -0.50955  -0.49212  -0.48732  -0.47069  -0.46103
 Alpha  occ. eigenvalues --   -0.41437  -0.40678  -0.39293  -0.39085  -0.38141
 Alpha  occ. eigenvalues --   -0.37239  -0.35847  -0.35603  -0.34000  -0.31912
 Alpha  occ. eigenvalues --   -0.31756  -0.31414  -0.31032  -0.30369  -0.29017
 Alpha  occ. eigenvalues --   -0.28346  -0.27475  -0.26847  -0.26669  -0.25168
 Alpha  occ. eigenvalues --   -0.23741  -0.23116  -0.21213  -0.19212  -0.18667
 Alpha  occ. eigenvalues --   -0.17727  -0.17563  -0.16434  -0.14006  -0.12026
 Alpha  occ. eigenvalues --   -0.09529  -0.04329  -0.02910
 Alpha virt. eigenvalues --    0.08159   0.09011   0.09597   0.13952   0.16484
 Alpha virt. eigenvalues --    0.17668   0.18633   0.19436   0.20358   0.20806
 Alpha virt. eigenvalues --    0.21788   0.22868   0.23461   0.24790   0.25789

 Mulliken charges:
               1
     1  O   -0.436311
     2  N   -0.200964
     3  C    0.010534
     4  H   -0.136312
     5  C   -0.058039
     6  C    0.196964
     7  C   -0.070992
     8  H   -0.149965
     9  C    0.042725
    10  H   -0.118152
    11  C    0.066788
    12  H   -0.105650
    13  C    0.030652
    14  H   -0.110866
    15  C    0.058226
    16  H   -0.121818
    17  C    0.018901
    18  C    0.066635
    19  C    0.090998
    20  H   -0.116823
    21  C    0.083068
    22  H   -0.057369
    23  C    0.259306
    24  H   -0.027643
    25  H   -0.047303
    26  H   -0.025575
    27  C    0.033202
    28  C    0.018020
    29  H   -0.106668
    30  C    0.077294
    31  H   -0.092787
    32  C    0.070800
    33  H   -0.091811
    34  C    0.070560
    35  C    0.046896
    36  H   -0.082795
    37  H   -0.083725
 Sum of Mulliken charges =  -1.00000

 Dipole moment (field-independent basis, Debye):
    X=             -6.2470    Y=             -4.6981    Z=              4.1714  Tot=              8.8599
 Quadrupole moment (field-independent basis, Debye-Ang):
   XX=           -164.4959   YY=           -135.3524   ZZ=           -130.7258
   XY=             -0.0250   XZ=             -0.4779   YZ=              7.7730

  Exact polarizability:     381.173     -33.121     175.096       1.457     -15.450     141.638
 Approx polarizability:     533.261     -86.471     306.782      18.797     -50.358     239.481

 Summary of Natural Population Analysis:

                                       Natural Population
                Natural  -----------------------------------------------
    Atom  No    Charge         Core      Valence    Rydberg      Total
 -----------------------------------------------------------------------
      O    1   -0.71956      1.99980     6.71226    0.00750     8.71956
      N    2   -0.47347      1.99935     5.45435    0.01977     7.47347
      C    3   -0.15398      1.99901     4.13885    0.01612     6.15398
      H    4    0.16816      0.00000     0.82769    0.00415     0.83184
      C    5   -0.15733      1.99890     4.13943    0.01900     6.15733
      C    6    0.39453      1.99881     3.56759    0.03906     5.60547
      C    7   -0.29277      1.99893     4.27297    0.02087     6.29277
      H    8    0.18067      0.00000     0.81387    0.00546     0.81933
      C    9   -0.18946      1.99905     4.17398    0.01643     6.18946
      H   10    0.17293      0.00000     0.82379    0.00328     0.82707
      C   11   -0.20684      1.99910     4.19288    0.01486     6.20684
      H   12    0.16709      0.00000     0.82962    0.00329     0.83291
      C   13   -0.26276      1.99910     4.24742    0.01625     6.26276
      H   14    0.16878      0.00000     0.82797    0.00325     0.83122
      C   15   -0.16155      1.99906     4.14698    0.01551     6.16155
      H   16    0.16941      0.00000     0.82720    0.00339     0.83059
      C   17   -0.11213      1.99895     4.09768    0.01551     6.11213
      C   18   -0.05157      1.99897     4.03687    0.01573     6.05157
      C   19    0.12330      1.99906     3.85000    0.02764     5.87670
      H   20    0.11194      0.00000     0.87989    0.00817     0.88806
      C   21   -0.00204      1.99887     3.98202    0.02116     6.00204
      H   22    0.15672      0.00000     0.83480    0.00848     0.84328
      C   23   -0.54937      1.99915     4.53974    0.01048     6.54937
      H   24    0.20093      0.00000     0.79591    0.00316     0.79907
      H   25    0.17458      0.00000     0.82254    0.00288     0.82542
      H   26    0.18916      0.00000     0.80697    0.00387     0.81084
      C   27   -0.01202      1.99894     3.99390    0.01918     6.01202
      C   28   -0.19582      1.99899     4.18265    0.01419     6.19582
      H   29    0.18017      0.00000     0.81669    0.00315     0.81983
      C   30   -0.18593      1.99909     4.17221    0.01464     6.18593
      H   31    0.17393      0.00000     0.82281    0.00326     0.82607
      C   32   -0.20606      1.99908     4.19257    0.01442     6.20606
      H   33    0.17553      0.00000     0.82130    0.00317     0.82447
      C   34   -0.17550      1.99909     4.16186    0.01454     6.17550
      C   35   -0.17163      1.99895     4.15760    0.01508     6.17163
      H   36    0.19460      0.00000     0.80183    0.00357     0.80540
      H   37    0.17738      0.00000     0.81946    0.00316     0.82262
 =======================================================================
   * Total *   -1.00000     41.98024   103.58614    0.43362   146.00000

 ******   28 imaginary frequencies (negative Signs) ******

                      1                      2                      3
                      A                      A                      A
 Frequencies --  -1393.1853             -1191.3270             -1179.0232
 Red. masses --      1.0086                 1.0766                 1.0844
 Frc consts  --      1.1534                 0.9003                 0.8881
 IR Inten    --      0.1235                58.0022                67.8380

                      4                      5                      6
                      A                      A                      A
 Frequencies --  -1126.6732             -1111.4708             -1093.8236
 Red. masses --      1.0480                 1.0406                 1.0526
 Frc consts  --      0.7838                 0.7574                 0.7420
 IR Inten    --     10.8058                 6.4719                27.2625

                      7                      8                      9
                      A                      A                      A
 Frequencies --  -1065.6521             -1054.1322             -1033.3581
 Red. masses --      1.0295                 1.0519                 1.0689
 Frc consts  --      0.6888                 0.6887                 0.6725
 IR Inten    --      0.8827                 4.1124                 8.8374

                     10                     11                     12
                      A                      A                      A
 Frequencies --  -1005.9755             -1002.6919              -974.9974
 Red. masses --      1.0278                 1.0420                 1.0152
 Frc consts  --      0.6128                 0.6172                 0.5686
 IR Inten    --      3.7042                13.9646                 0.0201

                     13                     14                     15
                      A                      A                      A
 Frequencies --   -921.1238              -889.4854              -824.6320
 Red. masses --      1.0089                 1.0289                 1.0264
 Frc consts  --      0.5043                 0.4796                 0.4112
 IR Inten    --      1.3768                 0.1301                 0.5064

                     16                     17                     18
                      A                      A                      A
 Frequencies --   -586.4001              -570.4912              -538.3300
 Red. masses --      1.3363                 1.2874                 1.4569
 Frc consts  --      0.2707                 0.2469                 0.2488
 IR Inten    --     15.0138                 0.1277                 3.1472

                     19                     20                     21
                      A                      A                      A
 Frequencies --   -509.7470              -488.3847              -472.8701
 Red. masses --      1.1532                 1.3129                 1.2084
 Frc consts  --      0.1765                 0.1845                 0.1592
 IR Inten    --      3.0408                 0.8720                 0.1541

                     22                     23                     24
                      A                      A                      A
 Frequencies --   -463.4217              -446.0631              -371.1069
 Red. masses --      1.4085                 1.4251                 1.1284
 Frc consts  --      0.1782                 0.1671                 0.0916
 IR Inten    --      0.0662                 2.0359                 3.7984

                     25                     26                     27
                      A                      A                      A
 Frequencies --   -350.8939              -245.8975              -176.4370
 Red. masses --      1.4528                 1.1190                 1.1727
 Frc consts  --      0.1054                 0.0399                 0.0215
 IR Inten    --      9.7514                16.4807                 6.9422

                     28                     29                     30
                      A                      A                      A
 Frequencies --   -134.7369               126.7997               143.2746
 Red. masses --      2.6964                 7.1458                 8.3495
 Frc consts  --      0.0288                 0.0677                 0.1010
 IR Inten    --      0.7997                 1.4401                 0.0282

                     31                     32                     33
                      A                      A                      A
 Frequencies --    173.7825               181.4956               234.3364
 Red. masses --      9.7022                 9.8900                 7.5890
 Frc consts  --      0.1726                 0.1919                 0.2455
 IR Inten    --      0.6959                 1.4759                 1.0369

                     34                     35                     36
                      A                      A                      A
 Frequencies --    272.0378               311.2998               339.5317
 Red. masses --      4.8353                 4.0222                 7.1081
 Frc consts  --      0.2108                 0.2297                 0.4828
 IR Inten    --      0.2800                 1.2977                 0.2036

                     37                     38                     39
                      A                      A                      A
 Frequencies --    349.5922               353.2475               398.0322
 Red. masses --      1.5390                 2.6680                 1.1408
 Frc consts  --      0.1108                 0.1961                 0.1065
 IR Inten    --     15.8080                13.3443                21.4059

                     40                     41                     42
                      A                      A                      A
 Frequencies --    430.8381               439.1070               473.6028
 Red. masses --      3.3702                 4.3436                 4.8595
 Frc consts  --      0.3686                 0.4935                 0.6422
 IR Inten    --      1.9103                 1.3615                 0.8232

                     43                     44                     45
                      A                      A                      A
 Frequencies --    484.3604               512.3128               538.2506
 Red. masses --      6.5526                 6.2941                 3.3958
 Frc consts  --      0.9057                 0.9733                 0.5796
 IR Inten    --      7.2088                 6.8021                27.0826

                     46                     47                     48
                      A                      A                      A
 Frequencies --    546.5804               595.5377               620.1797
 Red. masses --      8.5300                 5.7788                 7.2293
 Frc consts  --      1.5014                 1.2076                 1.6382
 IR Inten    --      2.4573                 7.1453                 7.9242

                     49                     50                     51
                      A                      A                      A
 Frequencies --    633.5706               657.5694               659.9910
 Red. masses --     10.2212                 8.6897                 4.5186
 Frc consts  --      2.4174                 2.2138                 1.1596
 IR Inten    --      0.2844                 9.1882                 1.2525

                     52                     53                     54
                      A                      A                      A
 Frequencies --    671.9454               705.6773               724.5259
 Red. masses --      3.4391                 4.6113                 3.8396
 Frc consts  --      0.9149                 1.3529                 1.1875
 IR Inten    --     40.5421                 3.2003                 5.7349

                     55                     56                     57
                      A                      A                      A
 Frequencies --    743.7126               788.9897               803.9985
 Red. masses --      3.1824                 3.7125                 8.3662
 Frc consts  --      1.0371                 1.3616                 3.1863
 IR Inten    --      2.1482                27.3057                10.6563

                     58                     59                     60
                      A                      A                      A
 Frequencies --    811.9078               831.1348               835.7403
 Red. masses --      4.5188                 2.5859                 3.8341
 Frc consts  --      1.7550                 1.0524                 1.5778
 IR Inten    --      6.5192                 3.0252                 0.7985

                     61                     62                     63
                      A                      A                      A
 Frequencies --    853.5032               854.4873               859.0158
 Red. masses --      4.6578                 7.8693                 4.4718
 Frc consts  --      1.9991                 3.3853                 1.9442
 IR Inten    --      6.0242                 3.4330                 8.0942

                     64                     65                     66
                      A                      A                      A
 Frequencies --    914.8326               954.7938               968.9024
 Red. masses --      2.5297                 2.2333                 5.8516
 Frc consts  --      1.2474                 1.1995                 3.2366
 IR Inten    --      2.5256                17.9476                 3.0328

                     67                     68                     69
                      A                      A                      A
 Frequencies --   1011.0564              1030.7241              1078.1926
 Red. masses --      2.0094                 2.1136                 3.6002
 Frc consts  --      1.2102                 1.3230                 2.4659
 IR Inten    --     30.0811                 4.2948                 7.5981

                     70                     71                     72
                      A                      A                      A
 Frequencies --   1082.2640              1153.0480              1242.1181
 Red. masses --      2.6680                 5.6544                 7.0333
 Frc consts  --      1.8412                 4.4293                 6.3935
 IR Inten    --     20.1882                14.9276                 7.1160

                     73                     74                     75
                      A                      A                      A
 Frequencies --   1268.8142              1280.8179              1320.8134
 Red. masses --      7.4221                 8.7056                 7.9968
 Frc consts  --      7.0400                 8.4144                 8.2196
 IR Inten    --      4.0969                88.9581                29.6724

                     76                     77                     78
                      A                      A                      A
 Frequencies --   1409.6566              1422.0090              1437.6031
 Red. masses --     10.9505                 7.8704                 9.8611
 Frc consts  --     12.8207                 9.3768                12.0076
 IR Inten    --    219.9426                 4.9741               159.3212

                     79                     80                     81
                      A                      A                      A
 Frequencies --   1458.2457              1491.3638              1515.4425
 Red. masses --     10.0298                 8.3274                 9.3148
 Frc consts  --     12.5662                10.9126                12.6039
 IR Inten    --     74.7755                 5.0621                 2.4371

                     82                     83                     84
                      A                      A                      A
 Frequencies --   1546.6768              1548.9803              1622.9100
 Red. masses --      8.9831                 9.8297                10.9245
 Frc consts  --     12.6612                13.8957                16.9528
 IR Inten    --      4.9591                75.2033               108.7736

                     85                     86                     87
                      A                      A                      A
 Frequencies --   1653.4690              1658.1182              1688.0708
 Red. masses --     10.5992                10.8904                11.1367
 Frc consts  --     17.0733                17.6411                18.6977
 IR Inten    --    133.6830               344.5007               305.6131

                     88                     89                     90
                      A                      A                      A
 Frequencies --   1715.4089              1773.2658              4476.8176
 Red. masses --     10.7991                10.4420                 1.0331
 Frc consts  --     18.7229                19.3456                12.1994
 IR Inten    --     20.7866                 3.6458                14.5219

                     91                     92                     93
                      A                      A                      A
 Frequencies --   4577.6544              4604.4777              4614.4111
 Red. masses --      1.0861                 1.0867                 1.0863
 Frc consts  --     13.4097                13.5738                13.6279
 IR Inten    --     34.8548                34.7974                 1.3334

                     94                     95                     96
                      A                      A                      A
 Frequencies --   4624.9565              4625.7547              4630.0971
 Red. masses --      1.0863                 1.0887                 1.0878
 Frc consts  --     13.6898                13.7256                13.7403
 IR Inten    --      0.1256                 9.1081                 7.5949

                     97                     98                     99
                      A                      A                      A
 Frequencies --   4633.7208              4633.8460              4636.4793
 Red. masses --      1.0880                 1.0890                 1.0913
 Frc consts  --     13.7638                13.7767                13.8220
 IR Inten    --      3.4157                 1.9164                17.6703

                    100                    101                    102
                      A                      A                      A
 Frequencies --   4639.9974              4647.7442              4647.8162
 Red. masses --      1.0909                 1.0918                 1.0934
 Frc consts  --     13.8384                13.8952                13.9167
 IR Inten    --      2.0982                20.3852                 6.6508

                    103                    104                    105
                      A                      A                      A
 Frequencies --   4664.9250              4675.3148              4689.6541
 Red. masses --      1.0906                 1.1056                 1.1067
 Frc consts  --     13.9835                14.2384                14.3401
 IR Inten    --      3.0493                10.8912                 2.4709

 - Thermochemistry -
 -------------------
 Temperature   298.150 Kelvin.  Pressure   1.00000 Atm.
 Atom     1 has atomic number  8 and mass  15.99491

 Molecular mass:   274.12319 amu.
 Principal axes and moments of inertia in atomic units:
                           1         2         3
     Eigenvalues --  2160.79070********************
           X            0.99999  -0.00403  -0.00184
           Y            0.00410   0.99930   0.03707
           Z            0.00169  -0.03708   0.99931
 This molecule is an asymmetric top.
 Rotational symmetry number  1.
 Warning -- assumption of classical behavior for rotation
           may cause significant error
 Rotational temperatures (Kelvin)      0.04008     0.00594     0.00566
 Rotational constants (GHZ):           0.83522     0.12371     0.11797
   28 imaginary frequencies ignored.
 Zero-point vibrational energy     766993.1 (Joules/Mol)
                                  183.31575 (Kcal/Mol)
 Warning -- explicit consideration of  20 degrees of freedom as
           vibrations may cause significant error
 Vibrational temperatures:    182.44   206.14   250.03   261.13   337.16
          (Kelvin)            391.40   447.89   488.51   502.99   508.24
                              572.68   619.88   631.78   681.41   696.89
                              737.10   774.42   786.41   856.85   892.30
                              911.57   946.10   949.58   966.78  1015.31
                             1042.43  1070.04  1135.18  1156.77  1168.15
                             1195.82  1202.44  1228.00  1229.42  1235.93
                             1316.24  1373.74  1394.03  1454.68  1482.98
                             1551.28  1557.14  1658.98  1787.13  1825.54
                             1842.81  1900.36  2028.18  2045.95  2068.39
                             2098.09  2145.74  2180.38  2225.32  2228.64
                             2335.01  2378.97  2385.66  2428.76  2468.09
                             2551.33  6441.14  6586.22  6624.82  6639.11
                             6654.28  6655.43  6661.68  6666.89  6667.07
                             6670.86  6675.92  6687.07  6687.17  6711.79
                             6726.74  6747.37

 Zero-point correction=                           0.292132 (Hartree/Particle)
 Thermal correction to Energy=                    0.304010
 Thermal correction to Enthalpy=                  0.304954
 Thermal correction to Gibbs Free Energy=         0.253889
 Sum of electronic and zero-point Energies=           -861.527732
 Sum of electronic and thermal Energies=              -861.515854
 Sum of electronic and thermal Enthalpies=            -861.514910
 Sum of electronic and thermal Free Energies=         -861.565975

                     E (Thermal)             CV                S
                      KCal/Mol        Cal/Mol-Kelvin    Cal/Mol-Kelvin
 Total                  190.769             51.103            107.476
 Electronic               0.000              0.000              0.000
 Translational            0.889              2.981             42.724
 Rotational               0.889              2.981             34.532
 Vibrational            188.992             45.141             30.220
 Vibration     1          0.611              1.926              2.994
 Vibration     2          0.616              1.910              2.760
 Vibration     3          0.627              1.875              2.394
 Vibration     4          0.630              1.865              2.313
 Vibration     5          0.654              1.788              1.845
 Vibration     6          0.675              1.725              1.583
 Vibration     7          0.700              1.652              1.355
 Vibration     8          0.719              1.597              1.214
 Vibration     9          0.727              1.576              1.168
 Vibration    10          0.729              1.569              1.152
 Vibration    11          0.764              1.474              0.970
 Vibration    12          0.792              1.403              0.856
 Vibration    13          0.799              1.385              0.829
 Vibration    14          0.830              1.309              0.728
 Vibration    15          0.840              1.285              0.698
 Vibration    16          0.867              1.223              0.628
 Vibration    17          0.893              1.165              0.569
 Vibration    18          0.902              1.147              0.551
 Vibration    19          0.953              1.041              0.457
 Vibration    20          0.980              0.989              0.416

 Normal termination of Gaussian 16 at Mon Mar  6 11:25:07 2023.
