 Gaussian 16, Revision C.01,
 Gaussian 16:  ES64L-G16RevC.01  3-Jul-2019

 ----------------------------------------------------------------------
 #p pop=(regular,nbo,savenbos) freq=noraman def2svp empiricaldispersion
 =gd3bj output=wfx pbe1pbe
 ----------------------------------------------------------------------

 ----------------------------------------
 ODIZOR_Complex_0_Ligand_0_ON_Cu_oriented
 ----------------------------------------
 Symbolic Z-matrix:
 Charge = -1 Multiplicity = 1

                         Standard orientation:
 ---------------------------------------------------------------------
 Center     Atomic      Atomic             Coordinates (Angstroms)
 Number     Number       Type             X           Y           Z
 ---------------------------------------------------------------------
      1          6           0       -2.885278    0.146485   -2.016168
      2          1           0       -2.493972   -0.062758   -2.835144
      3          6           0       -3.732663    1.239238   -1.969223
      4          1           0       -3.943839    1.699575   -2.747409
      5          6           0       -4.250588    1.637540   -0.784857
      6          1           0       -4.775502    2.405273   -0.756252
      7          6           0       -4.017285    0.923022    0.408814
      8          6           0       -4.560244    1.319744    1.581615
      9          1           0       -5.116672    2.066840    1.603390
     10          6           0       -4.308006    0.655244    2.707623
     11          1           0       -4.699514    0.935450    3.502398
     12          6           0       -3.143461   -0.241954    0.345242
     13          6           0       -3.425729   -0.512314    2.712095
     14          1           0       -3.256762   -0.974164    3.501290
     15          6           0       -2.856811   -0.907986    1.543488
     16          1           0       -2.270544   -1.630961    1.537792
     17          6           0       -2.582708   -0.659600   -0.933191
     18          6           0       -1.783847   -1.858849   -0.980641
     19          1           0       -2.218232   -2.505593   -0.386306
     20          6           0       -1.682525   -2.549094   -2.385742
     21          1           0       -2.562126   -2.783310   -2.690366
     22          1           0       -1.146826   -3.343360   -2.314658
     23         17           0        5.016022   -1.636580    0.867911
     24         17           0        3.548768    3.360939   -0.343038
     25          8           0        2.260325   -2.292954    0.411083
     26          7           0       -0.340916   -1.678598   -0.450988
     27          6           0        2.501755   -1.078993    0.139995
     28          6           0        3.760054   -0.557773    0.379939
     29          6           0        4.097157    0.807584    0.220891
     30          1           0        4.963595    1.106731    0.380631
     31          6           0        3.102724    1.684924   -0.183772
     32          6           0        1.868537    1.226030   -0.464478
     33          1           0        1.235875    1.817386   -0.803380
     34          6           0        1.501398   -0.125084   -0.265673
     35          6           0        0.172494   -0.508824   -0.577079
     36          1           0       -0.385166    0.156442   -0.908163
     37          1           0       -1.277776   -1.943865   -3.011680
 ---------------------------------------------------------------------

 SCF Done:  E(RPBE1PBE) =  -1780.38511993     A.U. after   19 cycles

 The electronic state is 1-A.
 Alpha  occ. eigenvalues -- -101.55259-101.53200 -18.97280 -14.23742 -10.15477
 Alpha  occ. eigenvalues --  -10.15179 -10.14861 -10.13989 -10.13903 -10.13879
 Alpha  occ. eigenvalues --  -10.13581 -10.13280 -10.13171 -10.13066 -10.13023
 Alpha  occ. eigenvalues --  -10.12766 -10.12727 -10.12083 -10.11197 -10.09629
 Alpha  occ. eigenvalues --  -10.08865 -10.08769 -10.08204  -9.40461  -9.38392
 Alpha  occ. eigenvalues --   -7.14558  -7.13635  -7.13616  -7.12500  -7.11579
 Alpha  occ. eigenvalues --   -7.11521  -0.83516  -0.82046  -0.79646  -0.77859
 Alpha  occ. eigenvalues --   -0.76429  -0.74134  -0.72877  -0.70125  -0.68671
 Alpha  occ. eigenvalues --   -0.68047  -0.65675  -0.62982  -0.59385  -0.57844
 Alpha  occ. eigenvalues --   -0.56877  -0.56172  -0.53754  -0.50998  -0.47704
 Alpha  occ. eigenvalues --   -0.47231  -0.46394  -0.44333  -0.43464  -0.39974
 Alpha  occ. eigenvalues --   -0.39692  -0.38746  -0.38266  -0.37446  -0.35684
 Alpha  occ. eigenvalues --   -0.35452  -0.35015  -0.34078  -0.32592  -0.32051
 Alpha  occ. eigenvalues --   -0.31519  -0.30783  -0.30227  -0.29539  -0.28997
 Alpha  occ. eigenvalues --   -0.27425  -0.26541  -0.26048  -0.25774  -0.25549
 Alpha  occ. eigenvalues --   -0.24491  -0.22339  -0.22198  -0.21183  -0.19980
 Alpha  occ. eigenvalues --   -0.17586  -0.17219  -0.16789  -0.16561  -0.14963
 Alpha  occ. eigenvalues --   -0.12104  -0.10963  -0.06008  -0.04410
 Alpha virt. eigenvalues --    0.04739   0.06974   0.09642   0.12144   0.17270
 Alpha virt. eigenvalues --    0.17491   0.18116   0.18599   0.18844   0.19060
 Alpha virt. eigenvalues --    0.19528   0.21358   0.22506   0.23192   0.24201

 Mulliken charges:
               1
     1  C    0.074334
     2  H   -0.126439
     3  C    0.128412
     4  H   -0.120138
     5  C    0.071464
     6  H   -0.133299
     7  C    0.066896
     8  C    0.054925
     9  H   -0.134875
    10  C    0.106083
    11  H   -0.110413
    12  C    0.012977
    13  C    0.103569
    14  H   -0.105166
    15  C    0.085824
    16  H   -0.091557
    17  C   -0.094214
    18  C    0.086367
    19  H   -0.037998
    20  C    0.242529
    21  H   -0.043846
    22  H   -0.019817
    23  Cl  -0.151734
    24  Cl  -0.189652
    25  O   -0.357261
    26  N   -0.224292
    27  C    0.181297
    28  C   -0.083253
    29  C    0.150100
    30  H   -0.162249
    31  C    0.027198
    32  C    0.090608
    33  H   -0.158475
    34  C   -0.130861
    35  C    0.159201
    36  H   -0.137838
    37  H   -0.028409
 Sum of Mulliken charges =  -1.00000

 Dipole moment (field-independent basis, Debye):
    X=            -10.1262    Y=              4.0876    Z=             -1.3185  Tot=             10.9995
 Quadrupole moment (field-independent basis, Debye-Ang):
   XX=           -195.2529   YY=           -171.3801   ZZ=           -144.7558
   XY=              4.0177   XZ=             -3.8503   YZ=              2.5136

  Exact polarizability:     293.039     -14.195     225.310       7.034     -10.702     201.836
 Approx polarizability:     377.516     -29.578     406.347      13.358     -39.015     346.581

 Summary of Natural Population Analysis:

                                       Natural Population
                Natural  -----------------------------------------------
    Atom  No    Charge         Core      Valence    Rydberg      Total
 -----------------------------------------------------------------------
      C    1   -0.18416      1.99896     4.16922    0.01598     6.18416
      H    2    0.17161      0.00000     0.82514    0.00324     0.82839
      C    3   -0.16551      1.99909     4.15154    0.01488     6.16551
      H    4    0.16646      0.00000     0.83038    0.00316     0.83354
      C    5   -0.16417      1.99904     4.14882    0.01630     6.16417
      H    6    0.16296      0.00000     0.83352    0.00352     0.83704
      C    7   -0.04661      1.99896     4.03171    0.01594     6.04661
      C    8   -0.18528      1.99896     4.17036    0.01596     6.18528
      H    9    0.17202      0.00000     0.82432    0.00366     0.82798
      C   10   -0.16160      1.99907     4.14778    0.01475     6.16160
      H   11    0.16015      0.00000     0.83681    0.00304     0.83985
      C   12   -0.03144      1.99895     4.01591    0.01658     6.03144
      C   13   -0.16252      1.99910     4.14902    0.01440     6.16252
      H   14    0.16515      0.00000     0.83199    0.00286     0.83485
      C   15   -0.14953      1.99900     4.13602    0.01451     6.14953
      H   16    0.18636      0.00000     0.80862    0.00502     0.81364
      C   17   -0.02103      1.99892     4.00508    0.01704     6.02103
      C   18   -0.04314      1.99880     4.02296    0.02138     6.04314
      H   19    0.18845      0.00000     0.80669    0.00485     0.81155
      C   20   -0.53247      1.99914     4.52270    0.01063     6.53247
      H   21    0.17483      0.00000     0.82213    0.00304     0.82517
      H   22    0.19922      0.00000     0.79726    0.00352     0.80078
     Cl   23   -0.04778      9.99956     7.03002    0.01819    17.04778
     Cl   24   -0.08616      9.99960     7.07031    0.01625    17.08616
      O   25   -0.68714      1.99978     6.67830    0.00907     8.68714
      N   26   -0.47723      1.99941     5.45920    0.01862     7.47723
      C   27    0.37208      1.99866     3.58537    0.04389     5.62792
      C   28   -0.08969      1.99869     4.06578    0.02522     6.08969
      C   29   -0.20681      1.99884     4.18987    0.01809     6.20681
      H   30    0.18062      0.00000     0.81492    0.00446     0.81938
      C   31   -0.08543      1.99862     4.06468    0.02214     6.08543
      C   32   -0.19123      1.99885     4.17499    0.01739     6.19123
      H   33    0.17321      0.00000     0.82203    0.00476     0.82679
      C   34   -0.17629      1.99895     4.15776    0.01958     6.17629
      C   35    0.12706      1.99898     3.84547    0.02849     5.87294
      H   36    0.11472      0.00000     0.87669    0.00859     0.88528
      H   37    0.18030      0.00000     0.81688    0.00282     0.81970
 =======================================================================
   * Total *   -1.00000     61.97795   115.54024    0.48181   178.00000

 ******   26 imaginary frequencies (negative Signs) ******

                      1                      2                      3
                      A                      A                      A
 Frequencies --  -1457.0438             -1439.8288             -1387.5314
 Red. masses --      1.0771                 1.0682                 1.0084
 Frc consts  --      1.3472                 1.3048                 1.1438
 IR Inten    --     35.3951                66.1145                 0.0551

                      4                      5                      6
                      A                      A                      A
 Frequencies --  -1380.9896             -1368.8394             -1362.6813
 Red. masses --      1.0439                 1.0408                 1.0559
 Frc consts  --      1.1730                 1.1490                 1.1552
 IR Inten    --      6.5847                 0.2750                21.7601

                      7                      8                      9
                      A                      A                      A
 Frequencies --  -1350.9260             -1306.9342             -1241.1005
 Red. masses --      1.0450                 1.0344                 1.0234
 Frc consts  --      1.1237                 1.0410                 0.9288
 IR Inten    --     10.6017                 0.6916                 2.5112

                     10                     11                     12
                      A                      A                      A
 Frequencies --  -1214.1197             -1182.9680             -1029.1696
 Red. masses --      1.0321                 1.0357                 1.0418
 Frc consts  --      0.8964                 0.8540                 0.6501
 IR Inten    --      0.9823                 0.2280                28.0464

                     13                     14                     15
                      A                      A                      A
 Frequencies --  -1015.6638              -960.5891              -923.0524
 Red. masses --      1.0472                 1.0946                 1.0570
 Frc consts  --      0.6365                 0.5951                 0.5306
 IR Inten    --      4.4544                 1.2845                 2.1724

                     16                     17                     18
                      A                      A                      A
 Frequencies --   -915.6638              -859.0962              -841.9730
 Red. masses --      1.0936                 1.0799                 1.1338
 Frc consts  --      0.5402                 0.4696                 0.4736
 IR Inten    --      1.5311                 5.7799                 3.0859

                     19                     20                     21
                      A                      A                      A
 Frequencies --   -800.3757              -747.3611              -721.9697
 Red. masses --      1.1153                 1.0900                 1.0680
 Frc consts  --      0.4210                 0.3587                 0.3280
 IR Inten    --      6.8513                 7.4092                22.3673

                     22                     23                     24
                      A                      A                      A
 Frequencies --   -704.8296              -641.8589              -325.6551
 Red. masses --      1.0874                 1.1944                 2.0838
 Frc consts  --      0.3183                 0.2899                 0.1302
 IR Inten    --      3.7869                 4.0674                 1.4882

                     25                     26                     27
                      A                      A                      A
 Frequencies --   -145.6939               -31.7201                21.6598
 Red. masses --      3.9124                14.6506                 8.5480
 Frc consts  --      0.0489                 0.0087                 0.0024
 IR Inten    --      1.8795                 1.7508                 0.0517

                     28                     29                     30
                      A                      A                      A
 Frequencies --     85.8969               120.5173               150.7215
 Red. masses --      9.1468                10.6547                 9.6073
 Frc consts  --      0.0398                 0.0912                 0.1286
 IR Inten    --      1.1913                 0.8796                 3.8779

                     31                     32                     33
                      A                      A                      A
 Frequencies --    182.4776               190.6351               210.2870
 Red. masses --     16.0145                 8.5104                 6.8174
 Frc consts  --      0.3142                 0.1822                 0.1776
 IR Inten    --      0.3623                 1.6184                 0.2940

                     34                     35                     36
                      A                      A                      A
 Frequencies --    244.4913               260.7544               268.8966
 Red. masses --      5.4864                 2.5357                 2.8411
 Frc consts  --      0.1932                 0.1016                 0.1210
 IR Inten    --      1.3509                 9.1413                 5.5266

                     37                     38                     39
                      A                      A                      A
 Frequencies --    282.6655               318.4785               344.4799
 Red. masses --      5.7912                 7.2068                10.6657
 Frc consts  --      0.2726                 0.4307                 0.7457
 IR Inten    --      1.0350                 0.1070                 1.4959

                     40                     41                     42
                      A                      A                      A
 Frequencies --    360.5302               401.0284               425.0222
 Red. masses --     10.6815                 6.0854                10.6488
 Frc consts  --      0.8180                 0.5766                 1.1334
 IR Inten    --      4.5313                 1.1767                 8.2385

                     43                     44                     45
                      A                      A                      A
 Frequencies --    436.2471               466.3179               478.0968
 Red. masses --      6.9123                 9.4673                 9.6117
 Frc consts  --      0.7751                 1.2129                 1.2944
 IR Inten    --      3.6918                 4.4495                 2.1051

                     46                     47                     48
                      A                      A                      A
 Frequencies --    492.1606               552.2490               576.0098
 Red. masses --      5.0785                 5.6031                 5.7861
 Frc consts  --      0.7248                 1.0068                 1.1311
 IR Inten    --      0.6904                 1.9403                19.0031

                     49                     50                     51
                      A                      A                      A
 Frequencies --    587.3967               605.4240               609.1596
 Red. masses --      9.5706                11.0308                 5.3345
 Frc consts  --      1.9456                 2.3822                 1.1663
 IR Inten    --      2.9451                 3.4048                10.5643

                     52                     53                     54
                      A                      A                      A
 Frequencies --    630.7225               637.7601               673.5260
 Red. masses --     11.0293                 5.2165                 3.7613
 Frc consts  --      2.5851                 1.2501                 1.0053
 IR Inten    --      0.2562                 0.5892                 7.3183

                     55                     56                     57
                      A                      A                      A
 Frequencies --    686.4629               711.4459               723.6358
 Red. masses --      6.8868                 7.6746                 3.6459
 Frc consts  --      1.9121                 2.2887                 1.1248
 IR Inten    --      6.4344                 7.2748                20.0012

                     58                     59                     60
                      A                      A                      A
 Frequencies --    742.6365               775.0981               801.2856
 Red. masses --      5.2564                 5.1866                 6.0132
 Frc consts  --      1.7080                 1.8359                 2.2747
 IR Inten    --      3.8608                15.1037                35.3878

                     61                     62                     63
                      A                      A                      A
 Frequencies --    821.6754               825.3972               841.9052
 Red. masses --     10.2458                 2.5747                 3.9587
 Frc consts  --      4.0756                 1.0335                 1.6532
 IR Inten    --     11.8166                 5.7738                36.9021

                     64                     65                     66
                      A                      A                      A
 Frequencies --    866.7086               892.3696               916.6960
 Red. masses --      4.4222                 4.7939                 4.4711
 Frc consts  --      1.9572                 2.2492                 2.2137
 IR Inten    --     61.9787                 0.6625                 6.1380

                     67                     68                     69
                      A                      A                      A
 Frequencies --    929.5615               935.8611               986.2733
 Red. masses --      2.7854                 5.3818                 4.1212
 Frc consts  --      1.4181                 2.7771                 2.3620
 IR Inten    --     13.6023                18.8774                 8.0001

                     70                     71                     72
                      A                      A                      A
 Frequencies --   1011.0332              1029.7452              1053.4016
 Red. masses --      1.2911                 2.4299                 2.8150
 Frc consts  --      0.7776                 1.5181                 1.8404
 IR Inten    --      3.6872                14.2365                 4.4918

                     73                     74                     75
                      A                      A                      A
 Frequencies --   1096.8258              1217.8250              1283.0367
 Red. masses --      7.0548                 8.2259                10.1672
 Frc consts  --      5.0005                 7.1879                 9.8612
 IR Inten    --      1.4505                 3.7249                91.4444

                     76                     77                     78
                      A                      A                      A
 Frequencies --   1308.9707              1359.8646              1383.0093
 Red. masses --      7.4422                 9.9150                 9.0593
 Frc consts  --      7.5130                10.8028                10.2093
 IR Inten    --      1.5463                35.5135                 2.0350

                     79                     80                     81
                      A                      A                      A
 Frequencies --   1435.3930              1447.6749              1497.6791
 Red. masses --     10.2370                 8.9657                 9.8676
 Frc consts  --     12.4270                11.0708                13.0406
 IR Inten    --    234.7325                 9.1905                 0.7694

                     82                     83                     84
                      A                      A                      A
 Frequencies --   1522.4640              1529.7676              1534.8830
 Red. masses --     10.5256                 9.1917                10.9652
 Frc consts  --     14.3744                12.6735                15.2200
 IR Inten    --     35.9503                 1.0366               114.5972

                     85                     86                     87
                      A                      A                      A
 Frequencies --   1596.1730              1604.0594              1669.9209
 Red. masses --      9.2915                11.1806                10.5072
 Frc consts  --     13.9475                16.9495                17.2635
 IR Inten    --      0.6353               245.1141                46.8804

                     88                     89                     90
                      A                      A                      A
 Frequencies --   1701.2938              1706.2870              1736.3958
 Red. masses --      9.8996                10.8964                10.8072
 Frc consts  --     16.8821                18.6912                19.1982
 IR Inten    --      6.9517               502.4552                26.6090

                     91                     92                     93
                      A                      A                      A
 Frequencies --   1828.0015              4360.5462              4469.8317
 Red. masses --     10.8624                 1.0870                 1.0316
 Frc consts  --     21.3861                12.1771                12.1437
 IR Inten    --      0.7358                11.2005                13.5396

                     94                     95                     96
                      A                      A                      A
 Frequencies --   4677.0294              4681.0563              4997.2442
 Red. masses --      1.1069                 1.1072                 1.0888
 Frc consts  --     14.2660                14.2937                16.0201
 IR Inten    --      8.7564                 3.9639                 2.3748

                     97                     98                     99
                      A                      A                      A
 Frequencies --   5007.3275              5009.1039              5019.3838
 Red. masses --      1.0880                 1.0869                 1.0882
 Frc consts  --     16.0722                16.0684                16.1533
 IR Inten    --      2.1507                 3.2562                 1.4320

                    100                    101                    102
                      A                      A                      A
 Frequencies --   5022.7496              5025.7925              5032.1163
 Red. masses --      1.0883                 1.0888                 1.0895
 Frc consts  --     16.1763                16.2034                16.2548
 IR Inten    --      2.5515                 0.6734                 0.8543

                    103                    104                    105
                      A                      A                      A
 Frequencies --   5041.1471              5048.3248              5054.0991
 Red. masses --      1.0897                 1.0910                 1.0907
 Frc consts  --     16.3160                16.3818                16.4155
 IR Inten    --      1.1760                 1.7652                 3.1500

 - Thermochemistry -
 -------------------
 Temperature   298.150 Kelvin.  Pressure   1.00000 Atm.
 Atom     1 has atomic number  6 and mass  12.00000

 Molecular mass:   342.04524 amu.
 Principal axes and moments of inertia in atomic units:
                           1         2         3
     Eigenvalues --  5417.77711********************
           X            1.00000  -0.00083  -0.00151
           Y            0.00089   0.99913   0.04172
           Z            0.00148  -0.04172   0.99913
 This molecule is an asymmetric top.
 Rotational symmetry number  1.
 Warning -- assumption of classical behavior for rotation
           may cause significant error
 Rotational temperatures (Kelvin)      0.01599     0.00553     0.00504
 Rotational constants (GHZ):           0.33311     0.11520     0.10504
   26 imaginary frequencies ignored.
 Zero-point vibrational energy     736122.6 (Joules/Mol)
                                  175.93752 (Kcal/Mol)
 Warning -- explicit consideration of  25 degrees of freedom as
           vibrations may cause significant error
 Vibrational temperatures:     31.16   123.59   173.40   216.85   262.54
          (Kelvin)            274.28   302.56   351.77   375.17   386.88
                              406.69   458.22   495.63   518.72   576.99
                              611.51   627.66   670.93   687.87   708.11
                              794.56   828.75   845.13   871.07   876.44
                              907.47   917.59   969.05   987.67  1023.61
                             1041.15  1068.49  1115.19  1152.87  1182.21
                             1187.56  1211.31  1247.00  1283.92  1318.92
                             1337.43  1346.50  1419.03  1454.65  1481.57
                             1515.61  1578.09  1752.18  1846.00  1883.32
                             1956.54  1989.84  2065.21  2082.88  2154.83
                             2190.49  2200.99  2208.35  2296.54  2307.88
                             2402.64  2447.78  2454.97  2498.29  2630.09
                             6273.85  6431.09  6729.20  6735.00  7189.92
                             7204.43  7206.98  7221.77  7226.62  7230.99
                             7240.09  7253.09  7263.41  7271.72

 Zero-point correction=                           0.280374 (Hartree/Particle)
 Thermal correction to Energy=                    0.295063
 Thermal correction to Enthalpy=                  0.296007
 Thermal correction to Gibbs Free Energy=         0.237310
 Sum of electronic and zero-point Energies=          -1780.104746
 Sum of electronic and thermal Energies=             -1780.090057
 Sum of electronic and thermal Enthalpies=           -1780.089113
 Sum of electronic and thermal Free Energies=        -1780.147810

                     E (Thermal)             CV                S
                      KCal/Mol        Cal/Mol-Kelvin    Cal/Mol-Kelvin
 Total                  185.155             59.257            123.538
 Electronic               0.000              0.000              0.000
 Translational            0.889              2.981             43.384
 Rotational               0.889              2.981             35.632
 Vibrational            183.377             53.295             44.522
 Vibration     1          0.593              1.985              6.476
 Vibration     2          0.601              1.959              3.751
 Vibration     3          0.609              1.932              3.092
 Vibration     4          0.618              1.902              2.663
 Vibration     5          0.630              1.864              2.303
 Vibration     6          0.634              1.853              2.222
 Vibration     7          0.642              1.825              2.041
 Vibration     8          0.660              1.772              1.770
 Vibration     9          0.669              1.745              1.657
 Vibration    10          0.673              1.730              1.603
 Vibration    11          0.682              1.706              1.517
 Vibration    12          0.705              1.638              1.318
 Vibration    13          0.723              1.586              1.191
 Vibration    14          0.735              1.554              1.120
 Vibration    15          0.767              1.468              0.959
 Vibration    16          0.787              1.416              0.875
 Vibration    17          0.797              1.391              0.838
 Vibration    18          0.824              1.325              0.748
 Vibration    19          0.835              1.299              0.715
 Vibration    20          0.848              1.267              0.678
 Vibration    21          0.908              1.135              0.540
 Vibration    22          0.932              1.083              0.493
 Vibration    23          0.945              1.059              0.472
 Vibration    24          0.964              1.020              0.440
 Vibration    25          0.968              1.012              0.434

 Normal termination of Gaussian 16 at Mon Mar  6 11:41:02 2023.
