 Gaussian 16, Revision C.01,
 Gaussian 16:  ES64L-G16RevC.01  3-Jul-2019

 ----------------------------------------------------------------------
 #p pop=(regular,nbo,savenbos) freq=noraman def2svp empiricaldispersion
 =gd3bj output=wfx pbe1pbe
 ----------------------------------------------------------------------

 ----------------------------------------
 OJATAU_Complex_0_Ligand_2_ON_Cu_oriented
 ----------------------------------------
 Symbolic Z-matrix:
 Charge = -1 Multiplicity = 1

                         Standard orientation:
 ---------------------------------------------------------------------
 Center     Atomic      Atomic             Coordinates (Angstroms)
 Number     Number       Type             X           Y           Z
 ---------------------------------------------------------------------
      1          7           0        0.008459   -0.059859    0.295466
      2          7           0        2.270479   -0.664349   -0.419188
      3          8           0       -1.129876    2.340021    0.788303
      4          8           0       -1.272225   -1.994507    0.416595
      5          8           0        3.040558    1.438045   -0.240794
      6          6           0       -0.190829   -1.330358    1.049564
      7          6           0       -2.229884   -0.944186    0.224642
      8          6           0       -1.342444    0.221519   -0.297806
      9          6           0       -1.879933    1.601265    0.100960
     10          6           0        0.973005   -0.267849   -0.851883
     11          6           0        3.236300    0.245990   -0.178616
     12          6           0        4.548671   -0.328786    0.221921
     13          1           0        2.451492   -1.539072   -0.311160
     14          1           0       -0.398854   -1.141349    1.967622
     15          1           0        0.602128   -1.870357    1.016731
     16          1           0       -2.613684   -0.694841    1.068470
     17          1           0       -1.285084    0.169241   -1.255363
     18          1           0        1.045742    0.551533   -1.345382
     19          1           0        0.618965   -0.936027   -1.443574
     20          1           0        5.188710    0.368594    0.381854
     21          1           0        4.435488   -0.846188    1.021548
     22          1           0        4.864861   -0.896102   -0.485162
     23          6           0       -3.305445   -1.396164   -0.701074
     24          1           0       -3.888149   -0.654214   -0.880053
     25          1           0       -2.912904   -1.700497   -1.523263
     26          8           0       -3.027115    1.911403   -0.270250
     27          1           0       -3.808650   -2.109550   -0.303299
 ---------------------------------------------------------------------

 SCF Done:  E(RPBE1PBE) =  -721.592876984     A.U. after   17 cycles

 The electronic state is 1-A.
 Alpha  occ. eigenvalues --  -19.07893 -19.06219 -18.93020 -18.91810 -14.30181
 Alpha  occ. eigenvalues --  -14.23764 -10.22202 -10.14555 -10.14172 -10.12580
 Alpha  occ. eigenvalues --  -10.11206 -10.09494 -10.07827 -10.05501  -0.95436
 Alpha  occ. eigenvalues --   -0.93817  -0.85831  -0.82351  -0.76709  -0.72205
 Alpha  occ. eigenvalues --   -0.70393  -0.68278  -0.61425  -0.59882  -0.52980
 Alpha  occ. eigenvalues --   -0.50882  -0.49318  -0.43787  -0.40968  -0.39996
 Alpha  occ. eigenvalues --   -0.39524  -0.38737  -0.38133  -0.35190  -0.33672
 Alpha  occ. eigenvalues --   -0.32549  -0.31044  -0.30758  -0.29956  -0.28520
 Alpha  occ. eigenvalues --   -0.27255  -0.26545  -0.23972  -0.23073  -0.21764
 Alpha  occ. eigenvalues --   -0.18677  -0.17426  -0.16660  -0.15853  -0.14822
 Alpha  occ. eigenvalues --   -0.09741  -0.03804  -0.03778  -0.01526
 Alpha virt. eigenvalues --    0.14096   0.15564   0.19895   0.21636   0.23103
 Alpha virt. eigenvalues --    0.24271   0.24334   0.24755   0.26552   0.27383
 Alpha virt. eigenvalues --    0.27868   0.28604   0.29637   0.30892   0.31480

 Mulliken charges:
               1
     1  N   -0.443321
     2  N   -0.188390
     3  O   -0.414037
     4  O   -0.469980
     5  O   -0.265384
     6  C    0.531307
     7  C    0.100880
     8  C    0.049591
     9  C    0.133133
    10  C    0.451358
    11  C    0.016046
    12  C    0.202468
    13  H    0.060542
    14  H   -0.063387
    15  H   -0.107529
    16  H   -0.059878
    17  H   -0.066946
    18  H   -0.028710
    19  H   -0.077526
    20  H   -0.021901
    21  H   -0.010978
    22  H   -0.021722
    23  C    0.275108
    24  H   -0.031318
    25  H   -0.057939
    26  O   -0.436787
    27  H   -0.054699
 Sum of Mulliken charges =  -1.00000

 Dipole moment (field-independent basis, Debye):
    X=              8.3174    Y=            -11.3667    Z=             -1.5586  Tot=             14.1707
 Quadrupole moment (field-independent basis, Debye-Ang):
   XX=           -107.3520   YY=           -114.3743   ZZ=            -82.4531
   XY=              5.8293   XZ=             -0.0260   YZ=             -4.0221

  Exact polarizability:     123.588       2.418      94.704       7.647       0.709      76.936
 Approx polarizability:     147.254       4.066     141.066      13.423       2.949     111.962

 Summary of Natural Population Analysis:

                                       Natural Population
                Natural  -----------------------------------------------
    Atom  No    Charge         Core      Valence    Rydberg      Total
 -----------------------------------------------------------------------
      N    1   -0.56133      1.99944     5.54542    0.01647     7.56133
      N    2   -0.64442      1.99917     5.63092    0.01433     7.64442
      O    3   -0.76239      1.99976     6.75356    0.00907     8.76239
      O    4   -0.64736      1.99976     6.63759    0.01001     8.64736
      O    5   -0.62291      1.99973     6.61247    0.01071     8.62291
      C    6    0.20741      1.99900     3.76987    0.02372     5.79259
      C    7    0.18332      1.99895     3.79452    0.02321     5.81668
      C    8   -0.13338      1.99888     4.10651    0.02799     6.13338
      C    9    0.78193      1.99942     3.14416    0.07448     5.21807
      C   10    0.06314      1.99895     3.91651    0.02140     5.93686
      C   11    0.72273      1.99939     3.23111    0.04677     5.27727
      C   12   -0.63704      1.99908     4.62989    0.00807     6.63704
      H   13    0.35209      0.00000     0.64289    0.00501     0.64791
      H   14    0.13927      0.00000     0.85581    0.00492     0.86073
      H   15    0.13290      0.00000     0.86253    0.00458     0.86710
      H   16    0.14315      0.00000     0.84959    0.00726     0.85685
      H   17    0.16106      0.00000     0.83222    0.00673     0.83894
      H   18    0.19048      0.00000     0.80420    0.00532     0.80952
      H   19    0.14589      0.00000     0.84713    0.00698     0.85411
      H   20    0.20474      0.00000     0.79150    0.00375     0.79526
      H   21    0.19615      0.00000     0.80069    0.00316     0.80385
      H   22    0.19154      0.00000     0.80517    0.00329     0.80846
      C   23   -0.56090      1.99913     4.55259    0.00918     6.56090
      H   24    0.20833      0.00000     0.78330    0.00837     0.79167
      H   25    0.17590      0.00000     0.81971    0.00439     0.82410
      O   26   -0.80465      1.99975     6.79512    0.00978     8.80465
      H   27    0.17434      0.00000     0.82183    0.00383     0.82566
 =======================================================================
   * Total *   -1.00000     27.99040    79.63682    0.37279   108.00000

 ******   19 imaginary frequencies (negative Signs) ******

                      1                      2                      3
                      A                      A                      A
 Frequencies --  -1439.6204             -1411.4449             -1384.3926
 Red. masses --      1.0764                 1.0159                 1.0123
 Frc consts  --      1.3144                 1.1924                 1.1431
 IR Inten    --     91.1631                 9.0399                 0.6721

                      4                      5                      6
                      A                      A                      A
 Frequencies --  -1131.1857             -1074.4757             -1065.6674
 Red. masses --      1.0333                 1.0410                 1.0703
 Frc consts  --      0.7790                 0.7081                 0.7162
 IR Inten    --      5.6882                 3.0244                 3.6892

                      7                      8                      9
                      A                      A                      A
 Frequencies --  -1032.8353             -1027.4779             -1007.1758
 Red. masses --      1.0404                 1.0659                 1.0623
 Frc consts  --      0.6539                 0.6630                 0.6349
 IR Inten    --      3.5368                 3.4477                 3.9131

                     10                     11                     12
                      A                      A                      A
 Frequencies --   -767.9555              -620.3462              -573.6690
 Red. masses --      1.1051                 1.3969                 1.2223
 Frc consts  --      0.3840                 0.3167                 0.2370
 IR Inten    --      3.5541                 8.5949                 3.5246

                     13                     14                     15
                      A                      A                      A
 Frequencies --   -497.1375              -481.6019              -414.8552
 Red. masses --      1.4788                 1.3320                 1.4363
 Frc consts  --      0.2153                 0.1820                 0.1456
 IR Inten    --     16.2567                 1.2042                 2.1188

                     16                     17                     18
                      A                      A                      A
 Frequencies --   -336.8140              -277.4579               -83.4471
 Red. masses --      1.9050                 2.3395                10.3812
 Frc consts  --      0.1273                 0.1061                 0.0426
 IR Inten    --      5.1152                 5.9543                 1.8147

                     19                     20                     21
                      A                      A                      A
 Frequencies --    -18.1835               160.4520               179.1931
 Red. masses --      1.3656                 7.1045                 6.2810
 Frc consts  --      0.0003                 0.1078                 0.1188
 IR Inten    --     39.3374                 3.2231                 0.4552

                     22                     23                     24
                      A                      A                      A
 Frequencies --    257.4313               286.6474               311.3041
 Red. masses --      4.7421                 1.1112                 3.7266
 Frc consts  --      0.1852                 0.0538                 0.2128
 IR Inten    --      5.0963                36.3633                 0.9603

                     25                     26                     27
                      A                      A                      A
 Frequencies --    330.5148               377.2258               403.5724
 Red. masses --      6.5486                 1.7296                 2.2844
 Frc consts  --      0.4215                 0.1450                 0.2192
 IR Inten    --      6.0503                30.4734                15.9144

                     28                     29                     30
                      A                      A                      A
 Frequencies --    447.4005               501.6243               586.6746
 Red. masses --      4.4047                 2.3562                 4.0129
 Frc consts  --      0.5195                 0.3493                 0.8138
 IR Inten    --      4.1248                 0.3820                38.5404

                     31                     32                     33
                      A                      A                      A
 Frequencies --    606.2249               612.0531               668.9935
 Red. masses --      4.8282                 4.0638                 3.0745
 Frc consts  --      1.0455                 0.8969                 0.8107
 IR Inten    --      3.4482                 4.4684                28.5122

                     34                     35                     36
                      A                      A                      A
 Frequencies --    686.2339               743.4366               767.1608
 Red. masses --      3.8146                 3.2320                 5.1731
 Frc consts  --      1.0584                 1.0525                 1.7938
 IR Inten    --      6.7810                 8.3595                 1.4893

                     37                     38                     39
                      A                      A                      A
 Frequencies --    785.0348               805.6582               810.9449
 Red. masses --      4.5832                 3.0073                 3.5201
 Frc consts  --      1.6642                 1.1501                 1.3639
 IR Inten    --     46.4751                 6.7946                22.1166

                     40                     41                     42
                      A                      A                      A
 Frequencies --    814.8247               844.3983               868.3170
 Red. masses --      4.7459                 3.9330                 4.3419
 Frc consts  --      1.8565                 1.6522                 1.9288
 IR Inten    --     25.1219                 2.2413                 5.9049

                     43                     44                     45
                      A                      A                      A
 Frequencies --    919.0058               937.0032               962.6437
 Red. masses --      3.9072                 1.3742                 1.3379
 Frc consts  --      1.9442                 0.7109                 0.7305
 IR Inten    --     42.8286                 2.0645                34.1982

                     46                     47                     48
                      A                      A                      A
 Frequencies --    972.4436               980.9361               991.6336
 Red. masses --      1.1794                 1.3118                 1.4808
 Frc consts  --      0.6571                 0.7437                 0.8579
 IR Inten    --     16.9275                14.5551                31.7655

                     49                     50                     51
                      A                      A                      A
 Frequencies --   1030.6605              1040.0297              1078.3369
 Red. masses --      1.2511                 5.9046                 3.9230
 Frc consts  --      0.7830                 3.7630                 2.6876
 IR Inten    --      4.5753                 6.6167                22.0695

                     52                     53                     54
                      A                      A                      A
 Frequencies --   1103.1145              1106.9502              1130.7932
 Red. masses --      3.5720                 3.6967                 4.0715
 Frc consts  --      2.5609                 2.6689                 3.0674
 IR Inten    --      5.2481                40.8341                55.2656

                     55                     56                     57
                      A                      A                      A
 Frequencies --   1147.5325              1170.7349              1224.6954
 Red. masses --      3.3467                 4.3599                 5.7492
 Frc consts  --      2.5965                 3.5208                 5.0805
 IR Inten    --     68.3322                25.6449                11.4670

                     58                     59                     60
                      A                      A                      A
 Frequencies --   1270.1425              1459.8621              1518.0223
 Red. masses --      7.9534                13.1323                10.0373
 Frc consts  --      7.5597                16.4898                13.6277
 IR Inten    --     19.2151               228.2651               425.9162

                     61                     62                     63
                      A                      A                      A
 Frequencies --   1765.4165              1889.7621              4467.2429
 Red. masses --     12.7668                11.4579                 1.0328
 Frc consts  --     23.4437                24.1086                12.1436
 IR Inten    --    454.1865               292.4683                18.6578

                     64                     65                     66
                      A                      A                      A
 Frequencies --   4474.2394              4543.6610              4545.0556
 Red. masses --      1.0331                 1.0592                 1.0599
 Frc consts  --     12.1849                12.8834                12.9007
 IR Inten    --      2.0538                55.5875                16.6750

                     67                     68                     69
                      A                      A                      A
 Frequencies --   4598.5424              4611.5061              4671.1470
 Red. masses --      1.0872                 1.0876                 1.1063
 Frc consts  --     13.5459                13.6269                14.2220
 IR Inten    --      9.4573                18.6589                12.1467

                     70                     71                     72
                      A                      A                      A
 Frequencies --   4672.8150              4678.0950              4679.1250
 Red. masses --      1.1126                 1.1064                 1.1063
 Frc consts  --     14.3136                14.2658                14.2704
 IR Inten    --     18.1842                 4.5740                 0.2442

                     73                     74                     75
                      A                      A                      A
 Frequencies --   4679.5074              4688.4427              5192.8460
 Red. masses --      1.1083                 1.1067                 1.0775
 Frc consts  --     14.2994                14.3336                17.1188
 IR Inten    --      4.5686                 0.2911                29.4018

 - Thermochemistry -
 -------------------
 Temperature   298.150 Kelvin.  Pressure   1.00000 Atm.
 Atom     1 has atomic number  7 and mass  14.00307

 Molecular mass:   201.08753 amu.
 Principal axes and moments of inertia in atomic units:
                           1         2         3
     Eigenvalues --  1505.686784445.019155483.97324
           X            0.99994   0.00754   0.00775
           Y           -0.00753   0.99997  -0.00113
           Z           -0.00775   0.00108   0.99997
 This molecule is an asymmetric top.
 Rotational symmetry number  1.
 Warning -- assumption of classical behavior for rotation
           may cause significant error
 Rotational temperatures (Kelvin)      0.05752     0.01949     0.01579
 Rotational constants (GHZ):           1.19862     0.40601     0.32909
   19 imaginary frequencies ignored.
 Zero-point vibrational energy     580531.4 (Joules/Mol)
                                  138.75033 (Kcal/Mol)
 Warning -- explicit consideration of  13 degrees of freedom as
           vibrations may cause significant error
 Vibrational temperatures:    230.85   257.82   370.39   412.42   447.90
          (Kelvin)            475.54   542.74   580.65   643.71   721.73
                              844.09   872.22   880.61   962.53   987.34
                             1069.64  1103.77  1129.49  1159.16  1166.77
                             1172.35  1214.90  1249.31  1322.24  1348.14
                             1385.03  1399.13  1411.35  1426.74  1482.89
                             1496.37  1551.49  1587.14  1592.65  1626.96
                             1651.04  1684.43  1762.06  1827.45  2100.42
                             2184.10  2540.04  2718.95  6427.37  6437.43
                             6537.31  6539.32  6616.28  6634.93  6720.74
                             6723.14  6730.74  6732.22  6732.77  6745.62
                             7471.35

 Zero-point correction=                           0.221113 (Hartree/Particle)
 Thermal correction to Energy=                    0.229838
 Thermal correction to Enthalpy=                  0.230783
 Thermal correction to Gibbs Free Energy=         0.186682
 Sum of electronic and zero-point Energies=           -721.371764
 Sum of electronic and thermal Energies=              -721.363039
 Sum of electronic and thermal Enthalpies=            -721.362094
 Sum of electronic and thermal Free Energies=         -721.406195

                     E (Thermal)             CV                S
                      KCal/Mol        Cal/Mol-Kelvin    Cal/Mol-Kelvin
 Total                  144.226             37.364             92.817
 Electronic               0.000              0.000              0.000
 Translational            0.889              2.981             41.800
 Rotational               0.889              2.981             31.973
 Vibrational            142.448             31.403             19.043
 Vibration     1          0.622              1.891              2.544
 Vibration     2          0.629              1.868              2.337
 Vibration     3          0.667              1.750              1.679
 Vibration     4          0.684              1.698              1.494
 Vibration     5          0.700              1.652              1.355
 Vibration     6          0.713              1.615              1.258
 Vibration     7          0.748              1.519              1.050
 Vibration     8          0.769              1.462              0.950
 Vibration     9          0.807              1.367              0.804
 Vibration    10          0.857              1.246              0.654
 Vibration    11          0.944              1.060              0.473
 Vibration    12          0.965              1.019              0.439
 Vibration    13          0.971              1.006              0.429

 Normal termination of Gaussian 16 at Mon Mar  6 10:45:37 2023.
