 Gaussian 16, Revision C.01,
 Gaussian 16:  ES64L-G16RevC.01  3-Jul-2019

 ----------------------------------------------------------------------
 #p pop=(regular,nbo,savenbos) freq=noraman def2svp empiricaldispersion
 =gd3bj output=wfx pbe1pbe
 ----------------------------------------------------------------------

 ----------------------------------------
 OJUPEO_Complex_1_Ligand_0_ON_Cu_oriented
 ----------------------------------------
 Symbolic Z-matrix:
 Charge = -1 Multiplicity = 1

                         Standard orientation:
 ---------------------------------------------------------------------
 Center     Atomic      Atomic             Coordinates (Angstroms)
 Number     Number       Type             X           Y           Z
 ---------------------------------------------------------------------
      1          7           0        0.638555    0.073912    0.341295
      2          6           0        1.249233   -1.229191    0.705781
      3          1           0        1.863965   -1.077834    1.454325
      4          6           0        2.005633   -1.966464   -0.381700
      5          1           0        2.743076   -1.417310   -0.691731
      6          6           0        1.692416    0.998226   -0.173700
      7          1           0        2.496859    0.897511    0.377121
      8          1           0        1.924793    0.734640   -1.089030
      9          6           0       -1.770379   -0.367878    0.148635
     10          1           0       -1.714806   -1.299898    0.477781
     11          6           0       -0.496884   -0.065871   -0.595338
     12          1           0       -0.309160   -0.788962   -1.229588
     13          6           0       -2.979163   -0.264774   -0.730577
     14          1           0       -3.089882    0.655024   -1.020063
     15          1           0       -3.764536   -0.544376   -0.234960
     16          6           0        1.291266    2.427465   -0.176349
     17          1           0        0.528547    2.548078   -0.761670
     18          1           0        2.030543    2.969669   -0.492857
     19          1           0        1.055400    2.699093    0.724680
     20          8           0       -1.876761    0.470054    1.255596
     21          1           0       -2.864181   -0.836197   -1.505412
     22          1           0        1.408229   -2.152952   -1.122853
     23          1           0        2.351137   -2.800523   -0.027167
     24          1           0       -0.604462    0.765083   -1.104177
     25          1           0        0.535937   -1.817934    1.031239
 ---------------------------------------------------------------------

 SCF Done:  E(RPBE1PBE) =  -405.315210073     A.U. after   17 cycles

 The electronic state is 1-A.
 Alpha  occ. eigenvalues --  -18.82384 -14.20445 -10.08179 -10.08013 -10.05681
 Alpha  occ. eigenvalues --  -10.04538 -10.03069 -10.01213  -9.98501  -0.77196
 Alpha  occ. eigenvalues --   -0.67548  -0.66719  -0.62562  -0.56022  -0.54259
 Alpha  occ. eigenvalues --   -0.52736  -0.45515  -0.38549  -0.36873  -0.35137
 Alpha  occ. eigenvalues --   -0.34808  -0.31904  -0.28816  -0.28386  -0.26914
 Alpha  occ. eigenvalues --   -0.26196  -0.25288  -0.24268  -0.23994  -0.22638
 Alpha  occ. eigenvalues --   -0.20792  -0.17140  -0.16504  -0.08051  -0.04371
 Alpha  occ. eigenvalues --    0.06364   0.06610
 Alpha virt. eigenvalues --    0.19884   0.22289   0.24393   0.25313   0.26156
 Alpha virt. eigenvalues --    0.27295   0.28147   0.29113   0.30331   0.30947
 Alpha virt. eigenvalues --    0.32249   0.32911   0.33186   0.34552   0.36527

 Mulliken charges:
               1
     1  N   -0.406031
     2  C    0.178860
     3  H   -0.051691
     4  C    0.099529
     5  H   -0.037480
     6  C    0.135129
     7  H   -0.059642
     8  H   -0.072755
     9  C    0.136312
    10  H   -0.148661
    11  C    0.276789
    12  H   -0.132140
    13  C    0.235957
    14  H   -0.096040
    15  H   -0.080634
    16  C    0.198653
    17  H   -0.033890
    18  H   -0.068297
    19  H   -0.018542
    20  O   -0.712769
    21  H   -0.135075
    22  H   -0.024875
    23  H   -0.052981
    24  H   -0.098742
    25  H   -0.030984
 Sum of Mulliken charges =  -1.00000

 Dipole moment (field-independent basis, Debye):
    X=              7.4912    Y=             -1.6151    Z=             -3.9929  Tot=              8.6411
 Quadrupole moment (field-independent basis, Debye-Ang):
   XX=            -80.6367   YY=            -63.7412   ZZ=            -69.3014
   XY=              3.0251   XZ=              7.6440   YZ=             -3.9761

  Exact polarizability:      98.900       0.590      91.573       1.586       1.268      77.378
 Approx polarizability:     114.741      -0.428     116.906      -1.835       6.808     117.457

 Summary of Natural Population Analysis:

                                       Natural Population
                Natural  -----------------------------------------------
    Atom  No    Charge         Core      Valence    Rydberg      Total
 -----------------------------------------------------------------------
      N    1   -0.53196      1.99942     5.51496    0.01759     7.53196
      C    2   -0.14133      1.99909     4.12536    0.01688     6.14133
      H    3    0.16212      0.00000     0.83407    0.00382     0.83788
      C    4   -0.58044      1.99920     4.57418    0.00706     6.58044
      H    5    0.17276      0.00000     0.82439    0.00284     0.82724
      C    6   -0.14528      1.99907     4.13141    0.01480     6.14528
      H    7    0.16096      0.00000     0.83491    0.00414     0.83904
      H    8    0.13808      0.00000     0.85354    0.00839     0.86192
      C    9    0.16690      1.99911     3.79485    0.03913     5.83310
      H   10    0.09110      0.00000     0.89713    0.01177     0.90890
      C   11   -0.20122      1.99894     4.17868    0.02359     6.20122
      H   12    0.12343      0.00000     0.86483    0.01174     0.87657
      C   13   -0.59066      1.99913     4.57954    0.01199     6.59066
      H   14    0.15935      0.00000     0.82704    0.01361     0.84065
      H   15    0.17329      0.00000     0.81830    0.00840     0.82671
      C   16   -0.55028      1.99920     4.54290    0.00817     6.55028
      H   17    0.18493      0.00000     0.81064    0.00443     0.81507
      H   18    0.16559      0.00000     0.83075    0.00366     0.83441
      H   19    0.19014      0.00000     0.80283    0.00703     0.80986
      O   20   -0.98036      1.99986     6.97205    0.00845     8.98036
      H   21    0.13570      0.00000     0.85222    0.01208     0.86430
      H   22    0.18262      0.00000     0.81366    0.00372     0.81738
      H   23    0.17459      0.00000     0.82141    0.00400     0.82541
      H   24    0.15727      0.00000     0.83213    0.01061     0.84273
      H   25    0.18269      0.00000     0.81283    0.00448     0.81731
 =======================================================================
   * Total *   -1.00000     17.99302    55.74459    0.26239    74.00000

 ******   17 imaginary frequencies (negative Signs) ******

                      1                      2                      3
                      A                      A                      A
 Frequencies --  -1321.1487             -1317.4423             -1305.6369
 Red. masses --      1.0105                 1.0135                 1.0155
 Frc consts  --      1.0392                 1.0364                 1.0199
 IR Inten    --      0.3983                 1.1374                 0.2284

                      4                      5                      6
                      A                      A                      A
 Frequencies --  -1031.7957             -1008.9934              -994.1068
 Red. masses --      1.0487                 1.0409                 1.0502
 Frc consts  --      0.6578                 0.6244                 0.6115
 IR Inten    --      0.8136                 8.1078                 4.5728

                      7                      8                      9
                      A                      A                      A
 Frequencies --   -992.4193              -951.9287              -950.4200
 Red. masses --      1.0556                 1.0576                 1.0702
 Frc consts  --      0.6126                 0.5647                 0.5696
 IR Inten    --      1.9315                 2.7897                 5.1939

                     10                     11                     12
                      A                      A                      A
 Frequencies --   -930.6649              -905.0346              -889.2642
 Red. masses --      1.0872                 1.0810                 1.1065
 Frc consts  --      0.5548                 0.5217                 0.5155
 IR Inten    --      5.9923                 0.1346                 1.5540

                     13                     14                     15
                      A                      A                      A
 Frequencies --   -433.1052              -407.8974              -363.6891
 Red. masses --      1.6337                 1.9842                 1.6649
 Frc consts  --      0.1806                 0.1945                 0.1297
 IR Inten    --      3.0014                27.2617                 1.6712

                     16                     17                     18
                      A                      A                      A
 Frequencies --   -297.3294              -255.9127               158.6305
 Red. masses --      2.1484                 2.2326                 2.4093
 Frc consts  --      0.1119                 0.0861                 0.0357
 IR Inten    --      3.2437                 1.0343                26.1696

                     19                     20                     21
                      A                      A                      A
 Frequencies --    332.0986               336.6707               438.6970
 Red. masses --      3.0690                 1.1315                 1.8448
 Frc consts  --      0.1994                 0.0756                 0.2092
 IR Inten    --      7.3815                20.9111                 9.9716

                     22                     23                     24
                      A                      A                      A
 Frequencies --    463.0138               520.5317               541.3428
 Red. masses --      2.5964                 1.2808                 1.8783
 Frc consts  --      0.3280                 0.2045                 0.3243
 IR Inten    --      6.7981                30.1476                 8.9002

                     25                     26                     27
                      A                      A                      A
 Frequencies --    597.6454               612.5896               630.6437
 Red. masses --      3.5501                 1.3026                 1.8625
 Frc consts  --      0.7471                 0.2880                 0.4364
 IR Inten    --     12.9037                 7.2274                13.7655

                     28                     29                     30
                      A                      A                      A
 Frequencies --    659.1838               717.6919               788.5313
 Red. masses --      1.4647                 1.6561                 2.6943
 Frc consts  --      0.3750                 0.5026                 0.9870
 IR Inten    --      6.8789                 5.9839                15.2991

                     31                     32                     33
                      A                      A                      A
 Frequencies --    802.0880               828.0813               846.3288
 Red. masses --      2.3877                 2.4770                 2.1398
 Frc consts  --      0.9050                 1.0007                 0.9030
 IR Inten    --     44.6598                15.9923                 0.8890

                     34                     35                     36
                      A                      A                      A
 Frequencies --    854.8311               860.0653               895.6176
 Red. masses --      2.1818                 2.3329                 2.9856
 Frc consts  --      0.9393                 1.0167                 1.4110
 IR Inten    --      9.5838                10.8821                10.0878

                     37                     38                     39
                      A                      A                      A
 Frequencies --    902.5604               987.4099              1002.1924
 Red. masses --      2.2718                 1.2601                 1.2617
 Frc consts  --      1.0904                 0.7239                 0.7466
 IR Inten    --      4.8507                10.3187                28.6535

                     40                     41                     42
                      A                      A                      A
 Frequencies --   1010.1024              1029.8878              1070.6885
 Red. masses --      1.3479                 1.4943                 1.1437
 Frc consts  --      0.8103                 0.9338                 0.7725
 IR Inten    --      6.1585                15.1671                13.3886

                     43                     44                     45
                      A                      A                      A
 Frequencies --   1077.4114              1083.2785              1088.2809
 Red. masses --      1.1448                 1.1577                 1.1469
 Frc consts  --      0.7830                 0.8004                 0.8003
 IR Inten    --      2.8612                10.5370                 8.1284

                     46                     47                     48
                      A                      A                      A
 Frequencies --   1092.8234              1103.9536              1118.4913
 Red. masses --      1.2670                 1.9427                 2.0433
 Frc consts  --      0.8915                 1.3950                 1.5061
 IR Inten    --      5.7086                11.5870                45.7707

                     49                     50                     51
                      A                      A                      A
 Frequencies --   1143.4789              1185.7099              1223.0474
 Red. masses --      2.6763                 3.4811                 5.1349
 Frc consts  --      2.0618                 2.8836                 4.5255
 IR Inten    --      7.4813                 5.9247                37.3384

                     52                     53                     54
                      A                      A                      A
 Frequencies --   1249.6656              1250.6161              4148.6686
 Red. masses --      4.6178                 6.0870                 1.0847
 Frc consts  --      4.2489                 5.6092                11.0000
 IR Inten    --     28.8965                18.6119               234.3458

                     55                     56                     57
                      A                      A                      A
 Frequencies --   4270.4729              4275.0805              4297.5429
 Red. masses --      1.0589                 1.0594                 1.0611
 Frc consts  --     11.3775                11.4074                11.5465
 IR Inten    --     40.6083                94.7292                35.3740

                     58                     59                     60
                      A                      A                      A
 Frequencies --   4333.0889              4346.5245              4353.2890
 Red. masses --      1.0312                 1.0321                 1.0331
 Frc consts  --     11.4077                11.4886                11.5351
 IR Inten    --     60.9976                23.2943                24.6721

                     61                     62                     63
                      A                      A                      A
 Frequencies --   4391.4494              4397.7908              4409.8111
 Red. masses --      1.1075                 1.1068                 1.1085
 Frc consts  --     12.5838                12.6120                12.7006
 IR Inten    --     35.8241                49.5578                13.0125

                     64                     65                     66
                      A                      A                      A
 Frequencies --   4525.6691              4542.0422              4542.9832
 Red. masses --      1.1044                 1.1064                 1.1069
 Frc consts  --     13.3273                13.4478                13.4603
 IR Inten    --     58.1685                16.2015                17.8947

                     67                     68                     69
                      A                      A                      A
 Frequencies --   4543.9155              4548.2389              4562.3656
 Red. masses --      1.1058                 1.1064                 1.1066
 Frc consts  --     13.4514                13.4848                13.5707
 IR Inten    --     16.1306                10.0087                 4.4588

 - Thermochemistry -
 -------------------
 Temperature   298.150 Kelvin.  Pressure   1.00000 Atm.
 Atom     1 has atomic number  7 and mass  14.00307

 Molecular mass:   130.12319 amu.
 Principal axes and moments of inertia in atomic units:
                           1         2         3
     Eigenvalues --   931.414551644.534412147.99580
           X            0.99979   0.00913   0.01832
           Y           -0.00893   0.99990  -0.01099
           Z           -0.01842   0.01082   0.99977
 This molecule is an asymmetric top.
 Rotational symmetry number  1.
 Warning -- assumption of classical behavior for rotation
           may cause significant error
 Rotational temperatures (Kelvin)      0.09299     0.05267     0.04032
 Rotational constants (GHZ):           1.93763     1.09742     0.84020
   17 imaginary frequencies ignored.
 Zero-point vibrational energy     604071.2 (Joules/Mol)
                                  144.37648 (Kcal/Mol)
 Warning -- explicit consideration of   9 degrees of freedom as
           vibrations may cause significant error
 Vibrational temperatures:    228.23   477.82   484.39   631.19   666.17
          (Kelvin)            748.93   778.87   859.88   881.38   907.36
                              948.42  1032.60  1134.52  1154.03  1191.42
                             1217.68  1229.91  1237.44  1288.59  1298.58
                             1420.66  1441.93  1453.31  1481.78  1540.48
                             1550.15  1558.60  1565.79  1572.33  1588.34
                             1609.26  1645.21  1705.97  1759.69  1797.99
                             1799.36  5969.01  6144.26  6150.89  6183.21
                             6234.35  6253.68  6263.41  6318.32  6327.44
                             6344.73  6511.43  6534.99  6536.34  6537.68
                             6543.90  6564.23

 Zero-point correction=                           0.230079 (Hartree/Particle)
 Thermal correction to Energy=                    0.236860
 Thermal correction to Enthalpy=                  0.237805
 Thermal correction to Gibbs Free Energy=         0.198739
 Sum of electronic and zero-point Energies=           -405.085132
 Sum of electronic and thermal Energies=              -405.078350
 Sum of electronic and thermal Enthalpies=            -405.077406
 Sum of electronic and thermal Free Energies=         -405.116471

                     E (Thermal)             CV                S
                      KCal/Mol        Cal/Mol-Kelvin    Cal/Mol-Kelvin
 Total                  148.632             29.982             82.220
 Electronic               0.000              0.000              0.000
 Translational            0.889              2.981             40.503
 Rotational               0.889              2.981             29.577
 Vibrational            146.855             24.020             12.140
 Vibration     1          0.621              1.893              2.566
 Vibration     2          0.714              1.611              1.250
 Vibration     3          0.717              1.602              1.228
 Vibration     4          0.799              1.386              0.831
 Vibration     5          0.821              1.332              0.757
 Vibration     6          0.876              1.205              0.609
 Vibration     7          0.896              1.159              0.562
 Vibration     8          0.956              1.037              0.454
 Vibration     9          0.972              1.005              0.429

 Normal termination of Gaussian 16 at Mon Mar  6 10:38:06 2023.
