 Gaussian 16, Revision C.01,
 Gaussian 16:  ES64L-G16RevC.01  3-Jul-2019

 ----------------------------------------------------------------------
 #p pop=(regular,nbo,savenbos) freq=noraman def2svp empiricaldispersion
 =gd3bj output=wfx pbe1pbe
 ----------------------------------------------------------------------

 ----------------------------------------
 OLIWAJ_Complex_3_Ligand_0_NN_Cu_oriented
 ----------------------------------------
 Symbolic Z-matrix:
 Charge = -1 Multiplicity = 1

                         Standard orientation:
 ---------------------------------------------------------------------
 Center     Atomic      Atomic             Coordinates (Angstroms)
 Number     Number       Type             X           Y           Z
 ---------------------------------------------------------------------
      1          5           0       -0.027357   -0.014364   -0.065831
      2          6           0        0.753251    3.495470    0.594584
      3          1           0        1.077237    4.191716    1.152327
      4          6           0        3.420539   -1.102995    0.618976
      5          1           0        4.175117   -1.180045    1.191601
      6          6           0        3.352534   -1.617898   -0.664993
      7          1           0        4.022584   -2.098792   -1.136760
      8          6           0        2.087170   -1.271906   -1.105197
      9          1           0        1.730620   -1.471908   -1.962419
     10          6           0       -0.753889   -0.454511    1.307419
     11          1           0       -0.185642   -0.147317    2.070781
     12          6           0       -2.115049    0.269697    1.402821
     13          1           0       -1.948514    1.242956    1.471493
     14          1           0       -2.564722   -0.015110    2.237665
     15          6           0       -3.066270    0.020852    0.227002
     16          1           0       -3.468433   -0.878510    0.325305
     17          1           0       -3.800100    0.684290    0.264472
     18          6           0       -0.990245   -0.546837   -1.259016
     19          6           0       -1.110343   -2.088425   -1.202766
     20          1           0       -0.236276   -2.481056   -1.453377
     21          1           0       -1.771476   -2.376867   -1.879774
     22          6           0       -1.526603   -2.657968    0.155012
     23          1           0       -2.506729   -2.555401    0.256380
     24          1           0       -1.322867   -3.626311    0.167986
     25          6           0       -0.835435   -1.991747    1.359033
     26          1           0       -1.320543   -2.252724    2.181621
     27          1           0        0.084398   -2.351192    1.430019
     28          7           0        0.742898    2.197375    0.934482
     29          7           0        0.195478    1.538150   -0.127467
     30          7           0        2.275946   -0.478070    0.949231
     31          7           0        1.441568   -0.607974   -0.127352
     32          6           0       -2.385493    0.110050   -1.147331
     33          1           0       -2.981861   -0.311234   -1.817074
     34          1           0       -2.298446    1.065686   -1.388287
     35          6           0        0.231124    3.692716   -0.674301
     36          1           0        0.123616    4.512681   -1.140465
     37          6           0       -0.096332    2.420182   -1.104202
     38          1           0       -0.467518    2.203436   -1.950672
     39          1           0       -0.584644   -0.288925   -2.136169
 ---------------------------------------------------------------------

 SCF Done:  E(RPBE1PBE) =  -787.801924977     A.U. after   14 cycles

 The electronic state is 1-A.
 Alpha  occ. eigenvalues --  -14.27961 -14.27946 -14.23769 -14.23676 -10.09469
 Alpha  occ. eigenvalues --  -10.09390 -10.08028 -10.08024 -10.06687 -10.06669
 Alpha  occ. eigenvalues --  -10.06551 -10.06516 -10.06022 -10.05954 -10.05434
 Alpha  occ. eigenvalues --  -10.05387 -10.04982 -10.02824  -6.59771  -0.89151
 Alpha  occ. eigenvalues --   -0.88292  -0.71486  -0.66735  -0.66638  -0.65459
 Alpha  occ. eigenvalues --   -0.64669  -0.63635  -0.63515  -0.56831  -0.56565
 Alpha  occ. eigenvalues --   -0.48311  -0.48013  -0.47385  -0.46438  -0.45297
 Alpha  occ. eigenvalues --   -0.44717  -0.43251  -0.41896  -0.41050  -0.38092
 Alpha  occ. eigenvalues --   -0.35472  -0.33084  -0.32020  -0.31426  -0.31275
 Alpha  occ. eigenvalues --   -0.31108  -0.30990  -0.29394  -0.29316  -0.28262
 Alpha  occ. eigenvalues --   -0.26563  -0.26337  -0.25520  -0.24719  -0.24371
 Alpha  occ. eigenvalues --   -0.21689  -0.21292  -0.21171  -0.19932  -0.19021
 Alpha  occ. eigenvalues --   -0.16788  -0.15198  -0.13944  -0.12245  -0.12140
 Alpha  occ. eigenvalues --   -0.10531  -0.10456  -0.09840  -0.09299
 Alpha virt. eigenvalues --    0.16890   0.18713   0.19252   0.21418   0.21895
 Alpha virt. eigenvalues --    0.22044   0.22941   0.23325   0.23900   0.24283
 Alpha virt. eigenvalues --    0.25094   0.25680   0.26695   0.27409   0.27431

 Mulliken charges:
               1
     1  B    0.230501
     2  C    0.142048
     3  H   -0.107793
     4  C    0.142998
     5  H   -0.106391
     6  C   -0.116259
     7  H   -0.121287
     8  C    0.213819
     9  H   -0.089853
    10  C   -0.155416
    11  H   -0.022795
    12  C    0.127169
    13  H   -0.029559
    14  H   -0.077933
    15  C    0.082560
    16  H   -0.049511
    17  H   -0.054111
    18  C   -0.216835
    19  C    0.136899
    20  H   -0.052493
    21  H   -0.074288
    22  C    0.076513
    23  H   -0.049031
    24  H   -0.054196
    25  C    0.127447
    26  H   -0.077388
    27  H   -0.028991
    28  N   -0.138327
    29  N   -0.173397
    30  N   -0.144479
    31  N   -0.180582
    32  C    0.127115
    33  H   -0.073176
    34  H   -0.052923
    35  C   -0.113871
    36  H   -0.121818
    37  C    0.214065
    38  H   -0.088886
    39  H   -0.049543
 Sum of Mulliken charges =  -1.00000

 Dipole moment (field-independent basis, Debye):
    X=             -2.7335    Y=             -1.4907    Z=             -2.7102  Tot=              4.1278
 Quadrupole moment (field-independent basis, Debye-Ang):
   XX=           -133.6455   YY=           -131.2850   ZZ=           -122.4163
   XY=             -1.8396   XZ=             -2.2627   YZ=             -1.3088

  Exact polarizability:     167.005      -5.981     172.924       6.792       3.843     145.841
 Approx polarizability:     226.711     -10.463     237.212      17.943       9.927     242.102

 Summary of Natural Population Analysis:

                                       Natural Population
                Natural  -----------------------------------------------
    Atom  No    Charge         Core      Valence    Rydberg      Total
 -----------------------------------------------------------------------
      B    1    0.94178      1.99879     2.02339    0.03604     4.05822
      C    2   -0.02316      1.99924     4.00094    0.02298     6.02316
      H    3    0.14987      0.00000     0.84785    0.00228     0.85013
      C    4   -0.02428      1.99924     4.00222    0.02282     6.02428
      H    5    0.15086      0.00000     0.84687    0.00227     0.84914
      C    6   -0.34947      1.99916     4.33663    0.01368     6.34947
      H    7    0.16896      0.00000     0.82850    0.00254     0.83104
      C    8    0.00224      1.99912     3.97947    0.01917     5.99776
      H    9    0.16043      0.00000     0.83623    0.00333     0.83957
      C   10   -0.54697      1.99878     4.52842    0.01977     6.54697
      H   11    0.22713      0.00000     0.76801    0.00485     0.77287
      C   12   -0.37331      1.99909     4.35804    0.01618     6.37331
      H   13    0.19453      0.00000     0.80056    0.00492     0.80547
      H   14    0.17447      0.00000     0.82078    0.00475     0.82553
      C   15   -0.37593      1.99912     4.36468    0.01213     6.37593
      H   16    0.17296      0.00000     0.82329    0.00376     0.82704
      H   17    0.18130      0.00000     0.81485    0.00385     0.81870
      C   18   -0.55338      1.99884     4.53712    0.01742     6.55338
      C   19   -0.36980      1.99910     4.35531    0.01539     6.36980
      H   20    0.18784      0.00000     0.80843    0.00373     0.81216
      H   21    0.17368      0.00000     0.82154    0.00477     0.82632
      C   22   -0.37663      1.99912     4.36531    0.01220     6.37663
      H   23    0.17314      0.00000     0.82310    0.00376     0.82686
      H   24    0.18121      0.00000     0.81494    0.00385     0.81879
      C   25   -0.37382      1.99909     4.35856    0.01617     6.37382
      H   26    0.17452      0.00000     0.82072    0.00476     0.82548
      H   27    0.19500      0.00000     0.80011    0.00489     0.80500
      N   28   -0.30938      1.99946     5.28870    0.02121     7.30938
      N   29   -0.39634      1.99905     5.37760    0.01970     7.39634
      N   30   -0.31293      1.99946     5.29249    0.02098     7.31293
      N   31   -0.39207      1.99907     5.37308    0.01992     7.39207
      C   32   -0.37139      1.99909     4.35685    0.01544     6.37139
      H   33    0.17419      0.00000     0.82102    0.00478     0.82581
      H   34    0.18830      0.00000     0.80801    0.00369     0.81170
      C   35   -0.34811      1.99916     4.33527    0.01368     6.34811
      H   36    0.16913      0.00000     0.82837    0.00250     0.83087
      C   37    0.00122      1.99911     3.98039    0.01928     5.99878
      H   38    0.16132      0.00000     0.83526    0.00342     0.83868
      H   39    0.19288      0.00000     0.80181    0.00531     0.80712
 =======================================================================
   * Total *   -1.00000     37.98310    99.58474    0.43216   138.00000

 ******   27 imaginary frequencies (negative Signs) ******

                      1                      2                      3
                      A                      A                      A
 Frequencies --  -1267.5719             -1261.4478             -1199.3509
 Red. masses --      1.0779                 1.0757                 1.0453
 Frc consts  --      1.0204                 1.0085                 0.8859
 IR Inten    --     70.0954                75.5200                 0.2906

                      4                      5                      6
                      A                      A                      A
 Frequencies --  -1193.2089             -1141.4168             -1134.8043
 Red. masses --      1.0468                 1.0494                 1.0494
 Frc consts  --      0.8781                 0.8055                 0.7962
 IR Inten    --      0.4004                 1.8495                 1.8812

                      7                      8                      9
                      A                      A                      A
 Frequencies --   -939.6561              -931.7428              -905.8311
 Red. masses --      1.0598                 1.0399                 1.0308
 Frc consts  --      0.5513                 0.5319                 0.4983
 IR Inten    --      7.7495                 9.9334                 1.5851

                     10                     11                     12
                      A                      A                      A
 Frequencies --   -902.1397              -884.4542              -858.3712
 Red. masses --      1.0272                 1.0458                 1.0409
 Frc consts  --      0.4926                 0.4820                 0.4519
 IR Inten    --      0.0251                 1.3868                 0.8159

                     13                     14                     15
                      A                      A                      A
 Frequencies --   -840.3362              -829.1563              -687.8443
 Red. masses --      1.0597                 1.0604                 1.1297
 Frc consts  --      0.4409                 0.4295                 0.3149
 IR Inten    --      5.9664                 5.7992                12.0302

                     16                     17                     18
                      A                      A                      A
 Frequencies --   -677.1811              -623.3359              -617.7426
 Red. masses --      1.1434                 1.0589                 1.0604
 Frc consts  --      0.3089                 0.2424                 0.2384
 IR Inten    --      6.0573                20.3694                19.0653

                     19                     20                     21
                      A                      A                      A
 Frequencies --   -336.2308              -311.0420              -299.5635
 Red. masses --      1.7302                 2.0109                 1.5457
 Frc consts  --      0.1152                 0.1146                 0.0817
 IR Inten    --      4.2043                 0.1503                 5.2059

                     22                     23                     24
                      A                      A                      A
 Frequencies --   -290.0093              -226.6141              -187.6826
 Red. masses --      2.1340                 1.5403                 2.5548
 Frc consts  --      0.1057                 0.0466                 0.0530
 IR Inten    --      0.1978                 0.1870                 0.0210

                     25                     26                     27
                      A                      A                      A
 Frequencies --   -181.5085              -114.0010               -88.9752
 Red. masses --      1.7328                 1.2789                 1.4857
 Frc consts  --      0.0336                 0.0098                 0.0069
 IR Inten    --      0.3670                 0.5645                 0.0305

                     28                     29                     30
                      A                      A                      A
 Frequencies --    121.4000               163.0766               198.5498
 Red. masses --      6.7230                10.3335                 4.4540
 Frc consts  --      0.0584                 0.1619                 0.1035
 IR Inten    --      0.1055                 0.1552                 0.3475

                     31                     32                     33
                      A                      A                      A
 Frequencies --    204.2203               238.7299               275.7689
 Red. masses --      6.8509                 2.6928                 2.3884
 Frc consts  --      0.1683                 0.0904                 0.1070
 IR Inten    --      1.3800                 1.5129                 0.0150

                     34                     35                     36
                      A                      A                      A
 Frequencies --    302.4307               315.0709               349.4928
 Red. masses --      3.8745                 4.4283                 1.2785
 Frc consts  --      0.2088                 0.2590                 0.0920
 IR Inten    --      1.6778                 0.9533                 0.0445

                     37                     38                     39
                      A                      A                      A
 Frequencies --    373.1620               460.6310               523.6967
 Red. masses --      6.3462                 1.4092                 2.3303
 Frc consts  --      0.5207                 0.1762                 0.3765
 IR Inten    --      1.0886                 0.4735                 4.4469

                     40                     41                     42
                      A                      A                      A
 Frequencies --    550.9176               556.3680               568.2359
 Red. masses --      1.7543                 5.1811                 1.7048
 Frc consts  --      0.3137                 0.9449                 0.3243
 IR Inten    --      2.7044                 0.1910                 1.7474

                     43                     44                     45
                      A                      A                      A
 Frequencies --    568.5108               657.7693               687.7172
 Red. masses --      1.5084                 1.8371                 2.3844
 Frc consts  --      0.2872                 0.4683                 0.6644
 IR Inten    --      0.2548                 1.4983                 3.3004

                     46                     47                     48
                      A                      A                      A
 Frequencies --    688.1638               693.7079               714.9889
 Red. masses --      8.2153                 4.3581                 1.5957
 Frc consts  --      2.2922                 1.2357                 0.4806
 IR Inten    --      0.0066                 0.1949                 1.1578

                     49                     50                     51
                      A                      A                      A
 Frequencies --    731.9984               742.0883               755.6714
 Red. masses --      5.8807                 2.5851                 9.3843
 Frc consts  --      1.8565                 0.8388                 3.1573
 IR Inten    --      2.9726                 0.4857                 2.4718

                     52                     53                     54
                      A                      A                      A
 Frequencies --    810.7526               829.3878               867.1881
 Red. masses --      2.9018                 1.4915                 1.7536
 Frc consts  --      1.1238                 0.6045                 0.7770
 IR Inten    --     61.5254                 2.9230                 3.2965

                     55                     56                     57
                      A                      A                      A
 Frequencies --    868.4236               887.0162               898.9040
 Red. masses --      1.9339                 4.1320                 4.3430
 Frc consts  --      0.8593                 1.9155                 2.0676
 IR Inten    --      1.7601                94.0587                41.6070

                     58                     59                     60
                      A                      A                      A
 Frequencies --    937.5222               960.2125               964.0131
 Red. masses --      1.3834                 5.6450                 2.2977
 Frc consts  --      0.7164                 3.0665                 1.2581
 IR Inten    --      0.3761                 6.2896                 6.3307

                     61                     62                     63
                      A                      A                      A
 Frequencies --    966.8152               972.7117               981.0517
 Red. masses --      4.4914                 6.0289                 2.0166
 Frc consts  --      2.4736                 3.3609                 1.1436
 IR Inten    --      5.2701                15.3244                 2.5777

                     64                     65                     66
                      A                      A                      A
 Frequencies --    998.9147              1020.8305              1065.6980
 Red. masses --      2.9226                 3.9367                 5.7519
 Frc consts  --      1.7182                 2.4171                 3.8488
 IR Inten    --      5.9618                11.3249                 1.1904

                     67                     68                     69
                      A                      A                      A
 Frequencies --   1068.3781              1076.2732              1085.6044
 Red. masses --      5.1216                 3.4847                 1.5183
 Frc consts  --      3.4443                 2.3783                 1.0543
 IR Inten    --      1.4730                 0.0868                 0.3025

                     70                     71                     72
                      A                      A                      A
 Frequencies --   1097.1309              1104.1592              1109.1014
 Red. masses --      1.3969                 2.2132                 1.6660
 Frc consts  --      0.9907                 1.5898                 1.2074
 IR Inten    --      1.4412                 2.1497                 4.1417

                     73                     74                     75
                      A                      A                      A
 Frequencies --   1126.0400              1127.4891              1156.6455
 Red. masses --      1.3332                 1.0643                 3.0147
 Frc consts  --      0.9960                 0.7971                 2.3763
 IR Inten    --      1.4670                 9.8858                16.7166

                     76                     77                     78
                      A                      A                      A
 Frequencies --   1163.3301              1174.2342              1183.5237
 Red. masses --      1.6752                 2.7077                 2.4510
 Frc consts  --      1.3357                 2.1996                 2.0228
 IR Inten    --     15.0241                36.1022                14.2244

                     79                     80                     81
                      A                      A                      A
 Frequencies --   1194.2490              1195.7488              1201.3033
 Red. masses --      4.7998                 3.5052                 3.7223
 Frc consts  --      4.0333                 2.9529                 3.1649
 IR Inten    --      3.1899                12.4210                 2.9984

                     82                     83                     84
                      A                      A                      A
 Frequencies --   1204.0717              1236.0020              1311.3850
 Red. masses --      4.7969                 6.0979                 7.8544
 Frc consts  --      4.0975                 5.4887                 7.9583
 IR Inten    --     30.9687                40.4541                 1.0946

                     85                     86                     87
                      A                      A                      A
 Frequencies --   1321.5035              1403.0611              1425.0738
 Red. masses --      7.6956                10.5965                10.3801
 Frc consts  --      7.9182                12.2903                12.4201
 IR Inten    --      1.2768                26.4978                12.2747

                     88                     89                     90
                      A                      A                      A
 Frequencies --   1466.6441              1469.4643              1491.1779
 Red. masses --      9.2184                 9.1585                10.1073
 Frc consts  --     11.6831                11.6518                13.2418
 IR Inten    --      3.8143                 3.4277                80.5034

                     91                     92                     93
                      A                      A                      A
 Frequencies --   1500.5019              4105.4591              4129.0015
 Red. masses --     10.4154                 1.0857                 1.0862
 Frc consts  --     13.8166                10.7812                10.9101
 IR Inten    --     41.5764                36.4777                 5.0152

                     94                     95                     96
                      A                      A                      A
 Frequencies --   4170.5329              4173.3952              4175.0532
 Red. masses --      1.0605                 1.0603                 1.0605
 Frc consts  --     10.8683                10.8807                10.8918
 IR Inten    --     21.4256                 8.1502                54.9478

                     97                     98                     99
                      A                      A                      A
 Frequencies --   4176.7807              4181.9505              4188.1695
 Red. masses --      1.0600                 1.0611                 1.0610
 Frc consts  --     10.8957                10.9341                10.9650
 IR Inten    --     58.9938                53.7857                93.0246

                    100                    101                    102
                      A                      A                      A
 Frequencies --   4276.0239              4278.4656              4282.8781
 Red. masses --      1.1087                 1.1073                 1.1076
 Frc consts  --     11.9443                11.9426                11.9702
 IR Inten    --      8.0038                43.5623                15.0723

                    103                    104                    105
                      A                      A                      A
 Frequencies --   4283.8817              4290.1310              4297.1963
 Red. masses --      1.1068                 1.1073                 1.1062
 Frc consts  --     11.9674                12.0072                12.0352
 IR Inten    --      9.0083                50.8161                24.8489

                    106                    107                    108
                      A                      A                      A
 Frequencies --   4767.4589              4779.2221              4779.5392
 Red. masses --      1.0881                 1.0922                 1.0881
 Frc consts  --     14.5714                14.6981                14.6454
 IR Inten    --      2.6843                 5.0773                 2.0329

                    109                    110                    111
                      A                      A                      A
 Frequencies --   4790.8678              4791.2469              4799.2213
 Red. masses --      1.0948                 1.0910                 1.0961
 Frc consts  --     14.8054                14.7560                14.8738
 IR Inten    --      0.7075                 4.7186                 1.7980

 - Thermochemistry -
 -------------------
 Temperature   298.150 Kelvin.  Pressure   1.00000 Atm.
 Atom     1 has atomic number  5 and mass  11.00931

 Molecular mass:   255.17810 amu.
 Principal axes and moments of inertia in atomic units:
                           1         2         3
     Eigenvalues --  3869.364213908.977136057.61408
           X            0.91715   0.39854  -0.00341
           Y           -0.39854   0.91715  -0.00178
           Z            0.00242   0.00299   0.99999
 This molecule is an asymmetric top.
 Rotational symmetry number  1.
 Warning -- assumption of classical behavior for rotation
           may cause significant error
 Rotational temperatures (Kelvin)      0.02238     0.02216     0.01430
 Rotational constants (GHZ):           0.46642     0.46169     0.29793
   27 imaginary frequencies ignored.
 Zero-point vibrational energy     861792.1 (Joules/Mol)
                                  205.97325 (Kcal/Mol)
 Warning -- explicit consideration of  16 degrees of freedom as
           vibrations may cause significant error
 Vibrational temperatures:    174.67   234.63   285.67   293.83   343.48
          (Kelvin)            396.77   435.13   453.32   502.84   536.90
                              662.75   753.48   792.65   800.49   817.56
                              817.96   946.38   989.47   990.11   998.09
                             1028.71  1053.18  1067.70  1087.24  1166.49
                             1193.30  1247.69  1249.47  1276.22  1293.32
                             1348.89  1381.53  1387.00  1391.03  1399.52
                             1411.51  1437.22  1468.75  1533.30  1537.16
                             1548.52  1561.94  1578.53  1588.64  1595.75
                             1620.12  1622.21  1664.15  1673.77  1689.46
                             1702.83  1718.26  1720.42  1728.41  1732.39
                             1778.33  1886.79  1901.35  2018.69  2050.36
                             2110.17  2114.23  2145.47  2158.89  5906.84
                             5940.71  6000.47  6004.58  6006.97  6009.46
                             6016.89  6025.84  6152.24  6155.76  6162.11
                             6163.55  6172.54  6182.71  6859.31  6876.23
                             6876.69  6892.99  6893.54  6905.01

 Zero-point correction=                           0.328239 (Hartree/Particle)
 Thermal correction to Energy=                    0.339193
 Thermal correction to Enthalpy=                  0.340137
 Thermal correction to Gibbs Free Energy=         0.291520
 Sum of electronic and zero-point Energies=           -787.473686
 Sum of electronic and thermal Energies=              -787.462732
 Sum of electronic and thermal Enthalpies=            -787.461788
 Sum of electronic and thermal Free Energies=         -787.510405

                     E (Thermal)             CV                S
                      KCal/Mol        Cal/Mol-Kelvin    Cal/Mol-Kelvin
 Total                  212.847             48.740            102.324
 Electronic               0.000              0.000              0.000
 Translational            0.889              2.981             42.510
 Rotational               0.889              2.981             32.882
 Vibrational            211.069             42.779             26.932
 Vibration     1          0.609              1.931              3.078
 Vibration     2          0.623              1.888              2.514
 Vibration     3          0.637              1.842              2.146
 Vibration     4          0.640              1.834              2.095
 Vibration     5          0.657              1.781              1.812
 Vibration     6          0.677              1.718              1.560
 Vibration     7          0.694              1.669              1.403
 Vibration     8          0.702              1.645              1.336
 Vibration     9          0.727              1.576              1.168
 Vibration    10          0.745              1.527              1.067
 Vibration    11          0.818              1.337              0.764
 Vibration    12          0.879              1.198              0.601
 Vibration    13          0.906              1.138              0.542
 Vibration    14          0.912              1.126              0.531
 Vibration    15          0.924              1.100              0.508
 Vibration    16          0.925              1.099              0.507

 Normal termination of Gaussian 16 at Mon Mar  6 11:53:35 2023.
