 Gaussian 16, Revision C.01,
 Gaussian 16:  ES64L-G16RevC.01  3-Jul-2019

 ----------------------------------------------------------------------
 #p pop=(regular,nbo,savenbos) freq=noraman def2svp empiricaldispersion
 =gd3bj output=wfx pbe1pbe
 ----------------------------------------------------------------------

 ----------------------------------------
 OMPACU_Complex_9_Ligand_0_OO_Cu_oriented
 ----------------------------------------
 Symbolic Z-matrix:
 Charge =  0 Multiplicity = 1

                         Standard orientation:
 ---------------------------------------------------------------------
 Center     Atomic      Atomic             Coordinates (Angstroms)
 Number     Number       Type             X           Y           Z
 ---------------------------------------------------------------------
      1          6           0       -0.000051   -0.918048    0.318360
      2          6           0        2.676971   -2.184654    1.216777
      3          6           0       -2.411686    2.311726   -0.201218
      4          6           0       -1.461360    1.550749    1.825859
      5          6           0       -3.297507   -2.008917   -0.840498
      6          6           0       -3.283658   -1.184607    1.312599
      7          1           0       -0.067294   -1.912370    0.160010
      8          1           0       -0.027048   -0.883623    1.263731
      9          1           0        2.372396   -2.979382    0.723533
     10          1           0        3.606233   -2.329204    1.571897
     11          1           0        2.062052   -1.979725    1.974708
     12          1           0       -3.334788    2.314877    0.198258
     13          1           0       -1.983806    3.192281   -0.072794
     14          1           0       -2.479531    2.095169   -1.176922
     15          1           0       -0.504098    1.679229    2.021654
     16          1           0       -1.960983    2.384376    2.081672
     17          1           0       -1.818845    0.794307    2.348591
     18          1           0       -3.184019   -2.955510   -0.447246
     19          1           0       -4.270662   -1.867922   -0.995949
     20          1           0       -2.810329   -1.995156   -1.713141
     21          1           0       -4.218523   -1.063135    1.354905
     22          1           0       -3.084126   -2.213502    1.592923
     23          1           0       -2.754578   -0.655528    1.955034
     24          7           0        2.699528   -1.094697    0.368479
     25          7           0       -1.658939    1.294687    0.432373
     26          7           0       -2.755106   -1.043890    0.076404
     27          8           0        1.488211   -0.559928   -1.901390
     28          8           0       -1.400613    0.029707   -1.789886
     29         15           0        1.513923   -0.317104   -0.435408
     30         15           0       -1.484984   -0.159217   -0.324854
     31          6           0        4.085611   -0.708379    0.052772
     32          1           0        4.209646    0.265696    0.290335
     33          1           0        4.720092   -1.249457    0.622007
     34          1           0        4.276269   -0.850806   -0.897018
     35          6           0        1.465296    2.296048   -1.127146
     36          6           0        2.109227    1.761236    1.186290
     37          1           0        0.755733    2.897545   -0.761891
     38          1           0        2.293243    2.807306   -1.302076
     39          1           0        1.137931    1.860972   -1.965016
     40          1           0        2.997948    2.161398    1.172844
     41          1           0        1.418865    2.441179    1.479874
     42          1           0        2.073200    0.986353    1.829096
     43          7           0        1.734958    1.265371   -0.139779
 ---------------------------------------------------------------------

 SCF Done:  E(RPBE1PBE) =  -1408.74328649     A.U. after   14 cycles

 The electronic state is 1-A.
 Alpha  occ. eigenvalues --  -77.27457 -77.26864 -19.11288 -19.09947 -14.38002
 Alpha  occ. eigenvalues --  -14.37698 -14.37695 -14.37564 -10.23763 -10.23674
 Alpha  occ. eigenvalues --  -10.23576 -10.23066 -10.22904 -10.22628 -10.21928
 Alpha  occ. eigenvalues --  -10.21097 -10.20777  -6.67121  -6.66401  -4.81259
 Alpha  occ. eigenvalues --   -4.81174  -4.81100  -4.80546  -4.80483  -4.80369
 Alpha  occ. eigenvalues --   -1.00274  -0.98191  -0.95045  -0.93182  -0.92421
 Alpha  occ. eigenvalues --   -0.90394  -0.78799  -0.76235  -0.75740  -0.75636
 Alpha  occ. eigenvalues --   -0.74737  -0.72319  -0.70153  -0.67127  -0.66565
 Alpha  occ. eigenvalues --   -0.58119  -0.56073  -0.54096  -0.52735  -0.51701
 Alpha  occ. eigenvalues --   -0.51378  -0.50515  -0.49785  -0.49218  -0.48734
 Alpha  occ. eigenvalues --   -0.48431  -0.48045  -0.47106  -0.46940  -0.45161
 Alpha  occ. eigenvalues --   -0.44599  -0.43942  -0.42956  -0.42612  -0.42304
 Alpha  occ. eigenvalues --   -0.40594  -0.40010  -0.39858  -0.39286  -0.38981
 Alpha  occ. eigenvalues --   -0.38800  -0.38215  -0.34543  -0.33884  -0.27415
 Alpha  occ. eigenvalues --   -0.26871  -0.26129  -0.24822  -0.24530  -0.23651
 Alpha  occ. eigenvalues --   -0.22755  -0.21752
 Alpha virt. eigenvalues --    0.04924   0.07134   0.07774   0.07972   0.09353
 Alpha virt. eigenvalues --    0.10160   0.11098   0.11609   0.12161   0.12816
 Alpha virt. eigenvalues --    0.13361   0.13667   0.13930   0.14430   0.15286

 Mulliken charges:
               1
     1  C   -0.185146
     2  C    0.284052
     3  C    0.248398
     4  C    0.283857
     5  C    0.224092
     6  C    0.302116
     7  H    0.049514
     8  H   -0.034649
     9  H   -0.004937
    10  H   -0.004976
    11  H   -0.018072
    12  H   -0.016239
    13  H   -0.005062
    14  H    0.021347
    15  H   -0.024118
    16  H   -0.001282
    17  H   -0.030173
    18  H   -0.012955
    19  H   -0.000209
    20  H    0.030597
    21  H   -0.023556
    22  H   -0.012283
    23  H   -0.050306
    24  N   -0.612511
    25  N   -0.599259
    26  N   -0.531327
    27  O   -0.498802
    28  O   -0.491904
    29  P    0.805532
    30  P    0.752902
    31  C    0.248084
    32  H   -0.007439
    33  H    0.000767
    34  H    0.014330
    35  C    0.267458
    36  C    0.245958
    37  H   -0.021880
    38  H   -0.015560
    39  H    0.039991
    40  H   -0.005229
    41  H    0.007045
    42  H   -0.006578
    43  N   -0.611590
 Sum of Mulliken charges =  -0.00000

 Dipole moment (field-independent basis, Debye):
    X=             -0.2789    Y=              0.3836    Z=              8.0485  Tot=              8.0625
 Quadrupole moment (field-independent basis, Debye-Ang):
   XX=           -102.7247   YY=           -107.3336   ZZ=           -129.3522
   XY=              1.8032   XZ=              2.0221   YZ=             -2.2266

  Exact polarizability:     159.449       1.731     149.369       1.294      -2.100     130.986
 Approx polarizability:     186.876       1.283     193.903       1.506      -1.758     197.722

 Summary of Natural Population Analysis:

                                       Natural Population
                Natural  -----------------------------------------------
    Atom  No    Charge         Core      Valence    Rydberg      Total
 -----------------------------------------------------------------------
      C    1   -1.16056      1.99878     5.13708    0.02470     7.16056
      C    2   -0.32358      1.99928     4.31035    0.01395     6.32358
      C    3   -0.32900      1.99927     4.31674    0.01299     6.32900
      C    4   -0.32643      1.99922     4.31487    0.01235     6.32643
      C    5   -0.33955      1.99925     4.32754    0.01277     6.33955
      C    6   -0.32100      1.99925     4.30617    0.01558     6.32100
      H    7    0.26940      0.00000     0.72758    0.00302     0.73060
      H    8    0.22079      0.00000     0.77612    0.00309     0.77921
      H    9    0.17362      0.00000     0.82280    0.00358     0.82638
      H   10    0.19050      0.00000     0.80700    0.00250     0.80950
      H   11    0.17449      0.00000     0.82262    0.00289     0.82551
      H   12    0.16549      0.00000     0.83113    0.00338     0.83451
      H   13    0.17476      0.00000     0.82254    0.00270     0.82524
      H   14    0.21821      0.00000     0.77772    0.00407     0.78179
      H   15    0.17534      0.00000     0.82106    0.00360     0.82466
      H   16    0.19693      0.00000     0.80074    0.00233     0.80307
      H   17    0.16619      0.00000     0.83069    0.00313     0.83381
      H   18    0.17269      0.00000     0.82367    0.00363     0.82731
      H   19    0.18059      0.00000     0.81650    0.00290     0.81941
      H   20    0.22004      0.00000     0.77649    0.00347     0.77996
      H   21    0.16626      0.00000     0.83015    0.00359     0.83374
      H   22    0.17522      0.00000     0.82035    0.00443     0.82478
      H   23    0.17669      0.00000     0.82081    0.00250     0.82331
      N   24   -0.89308      1.99921     5.88037    0.01350     7.89308
      N   25   -0.88974      1.99925     5.87513    0.01537     7.88974
      N   26   -0.88159      1.99913     5.86590    0.01656     7.88159
      O   27   -1.07289      1.99981     7.06712    0.00595     9.07289
      O   28   -1.07958      1.99981     7.07347    0.00630     9.07958
      P   29    2.28541      9.99767     2.58455    0.13237    12.71459
      P   30    2.31231      9.99765     2.55893    0.13111    12.68769
      C   31   -0.32176      1.99923     4.31093    0.01160     6.32176
      H   32    0.18380      0.00000     0.81306    0.00314     0.81620
      H   33    0.18545      0.00000     0.81227    0.00228     0.81455
      H   34    0.18836      0.00000     0.80751    0.00412     0.81164
      C   35   -0.31953      1.99923     4.30755    0.01276     6.31953
      C   36   -0.33493      1.99924     4.32465    0.01105     6.33493
      H   37    0.16920      0.00000     0.82740    0.00340     0.83080
      H   38    0.16990      0.00000     0.82724    0.00286     0.83010
      H   39    0.22821      0.00000     0.76832    0.00347     0.77179
      H   40    0.17469      0.00000     0.82198    0.00333     0.82531
      H   41    0.18062      0.00000     0.81583    0.00355     0.81938
      H   42    0.19257      0.00000     0.80445    0.00298     0.80743
      N   43   -0.89449      1.99924     5.88141    0.01384     7.89449
 =======================================================================
   * Total *   -0.00000     49.98453   103.46878    0.54670   154.00000

 ******   27 imaginary frequencies (negative Signs) ******

                      1                      2                      3
                      A                      A                      A
 Frequencies --  -1257.1692             -1238.0921             -1187.2998
 Red. masses --      1.0149                 1.0318                 1.0093
 Frc consts  --      0.9451                 0.9318                 0.8383
 IR Inten    --      2.2299                15.7902                 0.0509

                      4                      5                      6
                      A                      A                      A
 Frequencies --  -1149.6613             -1137.3923             -1120.4446
 Red. masses --      1.0099                 1.0112                 1.0098
 Frc consts  --      0.7865                 0.7708                 0.7469
 IR Inten    --      0.0035                 0.2003                 0.2621

                      7                      8                      9
                      A                      A                      A
 Frequencies --  -1119.6527             -1090.7848             -1043.9597
 Red. masses --      1.0099                 1.0105                 1.0100
 Frc consts  --      0.7459                 0.7084                 0.6486
 IR Inten    --      0.2315                 0.1954                 0.3939

                     10                     11                     12
                      A                      A                      A
 Frequencies --   -982.9611              -870.8514              -669.5032
 Red. masses --      1.0652                 1.1782                 1.3270
 Frc consts  --      0.6064                 0.5265                 0.3505
 IR Inten    --      9.8843                 6.9202                15.3950

                     13                     14                     15
                      A                      A                      A
 Frequencies --   -655.2032              -640.9391              -534.8749
 Red. masses --      1.4399                 1.3799                 1.2903
 Frc consts  --      0.3642                 0.3340                 0.2175
 IR Inten    --     10.5904                12.0012                 0.9379

                     16                     17                     18
                      A                      A                      A
 Frequencies --   -526.6106              -518.0880              -513.2241
 Red. masses --      1.2343                 1.2298                 1.2242
 Frc consts  --      0.2017                 0.1945                 0.1900
 IR Inten    --      4.8996                14.4913                 4.1861

                     19                     20                     21
                      A                      A                      A
 Frequencies --   -501.2089              -476.8120              -473.0656
 Red. masses --      1.2867                 1.3451                 1.3117
 Frc consts  --      0.1904                 0.1802                 0.1730
 IR Inten    --      1.9286                 5.2478                10.7992

                     22                     23                     24
                      A                      A                      A
 Frequencies --   -447.9770              -442.1297              -431.9512
 Red. masses --      1.3285                 1.2419                 1.3264
 Frc consts  --      0.1571                 0.1430                 0.1458
 IR Inten    --      2.7423                 1.3400                 0.4943

                     25                     26                     27
                      A                      A                      A
 Frequencies --   -392.3826              -249.1532              -114.4153
 Red. masses --      1.4001                 1.2487                 3.7131
 Frc consts  --      0.1270                 0.0457                 0.0286
 IR Inten    --      6.3362                 8.8854                 0.7296

                     28                     29                     30
                      A                      A                      A
 Frequencies --     19.2881                81.4106               148.8509
 Red. masses --      5.7773                 5.1513                 7.9234
 Frc consts  --      0.0013                 0.0201                 0.1034
 IR Inten    --      0.6428                 0.4285                 2.2845

                     31                     32                     33
                      A                      A                      A
 Frequencies --    181.1504               226.2018               283.6260
 Red. masses --      6.2777                 7.0373                 6.0956
 Frc consts  --      0.1214                 0.2122                 0.2889
 IR Inten    --      0.3270                 5.4917                 1.3949

                     34                     35                     36
                      A                      A                      A
 Frequencies --    322.8566               348.6863               361.1205
 Red. masses --      4.5686                 7.7803                 8.9133
 Frc consts  --      0.2806                 0.5573                 0.6848
 IR Inten    --     11.5137                38.1601                32.9969

                     37                     38                     39
                      A                      A                      A
 Frequencies --    427.3969               434.4409               463.1335
 Red. masses --      4.3008                 5.6184                 7.4076
 Frc consts  --      0.4629                 0.6248                 0.9361
 IR Inten    --      1.0654                70.1053                 4.2423

                     40                     41                     42
                      A                      A                      A
 Frequencies --    492.1396               497.0585               570.9220
 Red. masses --      2.5298                 2.8286                 2.7154
 Frc consts  --      0.3610                 0.4118                 0.5215
 IR Inten    --      7.2562                 2.0179                 3.5324

                     43                     44                     45
                      A                      A                      A
 Frequencies --    615.6680               627.3294               633.1564
 Red. masses --      2.4550                 3.2291                 2.5568
 Frc consts  --      0.5483                 0.7487                 0.6039
 IR Inten    --      4.3038                19.5858                19.0759

                     46                     47                     48
                      A                      A                      A
 Frequencies --    642.2381               657.7956               671.7841
 Red. masses --      2.8415                 3.4375                 3.0266
 Frc consts  --      0.6905                 0.8764                 0.8048
 IR Inten    --     29.5400                44.2150                 9.8698

                     49                     50                     51
                      A                      A                      A
 Frequencies --    684.8844               693.8123               744.6132
 Red. masses --      4.6442                 2.5802                 4.1789
 Frc consts  --      1.2835                 0.7318                 1.3651
 IR Inten    --     27.6954                19.4774                55.5926

                     52                     53                     54
                      A                      A                      A
 Frequencies --    761.0470               777.1866               788.7224
 Red. masses --      3.9504                 2.4031                 4.8015
 Frc consts  --      1.3481                 0.8552                 1.7599
 IR Inten    --     74.3442                 1.5728                67.8641

                     55                     56                     57
                      A                      A                      A
 Frequencies --    795.1027               797.8954               804.0151
 Red. masses --      2.6652                 2.6951                 2.6122
 Frc consts  --      0.9927                 1.0109                 0.9949
 IR Inten    --      5.0858                 6.0162                 6.2079

                     58                     59                     60
                      A                      A                      A
 Frequencies --    824.6738               869.6462               877.1012
 Red. masses --      6.1693                 4.4405                 3.6956
 Frc consts  --      2.4720                 1.9787                 1.6751
 IR Inten    --     52.1466                53.2390                21.0272

                     61                     62                     63
                      A                      A                      A
 Frequencies --    904.4212               938.5343               978.6307
 Red. masses --      4.4052                 5.8239                 1.1268
 Frc consts  --      2.1230                 3.0225                 0.6358
 IR Inten    --     65.3554               223.6039                10.9178

                     64                     65                     66
                      A                      A                      A
 Frequencies --    986.2777              1007.4074              1021.5738
 Red. masses --      1.3386                 1.2729                 1.2330
 Frc consts  --      0.7672                 0.7611                 0.7581
 IR Inten    --      2.5221                 1.5776                40.3130

                     67                     68                     69
                      A                      A                      A
 Frequencies --   1027.6569              1045.6051              1073.6260
 Red. masses --      1.3842                 1.2162                 1.2413
 Frc consts  --      0.8613                 0.7834                 0.8430
 IR Inten    --      8.2405                 0.0726                 1.6628

                     70                     71                     72
                      A                      A                      A
 Frequencies --   1096.8255              1126.3780              1171.1103
 Red. masses --      1.2682                 1.1885                 1.4125
 Frc consts  --      0.8989                 0.8884                 1.1414
 IR Inten    --     15.1883                 3.8702                34.0137

                     73                     74                     75
                      A                      A                      A
 Frequencies --   1181.4658              1184.7012              1196.9071
 Red. masses --      1.4516                 1.1847                 1.0936
 Frc consts  --      1.1938                 0.9797                 0.9230
 IR Inten    --     41.3196                16.9528                10.7276

                     76                     77                     78
                      A                      A                      A
 Frequencies --   1222.2977              1224.2192              1232.9115
 Red. masses --      1.0500                 1.0464                 1.0547
 Frc consts  --      0.9242                 0.9240                 0.9446
 IR Inten    --      8.8001                 6.1768                21.8966

                     79                     80                     81
                      A                      A                      A
 Frequencies --   1236.8955              1244.5069              1257.3335
 Red. masses --      1.0421                 1.0365                 1.1329
 Frc consts  --      0.9393                 0.9459                 1.0552
 IR Inten    --     10.7029                13.5827                45.3649

                     82                     83                     84
                      A                      A                      A
 Frequencies --   1262.6967              1272.2113              1273.9993
 Red. masses --      1.1536                 1.5671                 1.1419
 Frc consts  --      1.0837                 1.4944                 1.0919
 IR Inten    --     15.1217                50.9977                 7.0570

                     85                     86                     87
                      A                      A                      A
 Frequencies --   1276.5406              1281.5526              1295.1197
 Red. masses --      1.9825                 2.2662                 1.5341
 Frc consts  --      1.9034                 2.1929                 1.5160
 IR Inten    --     19.6004                54.7450                91.8736

                     88                     89                     90
                      A                      A                      A
 Frequencies --   1314.2684              1330.3616              1349.4392
 Red. masses --      2.3587                 1.5699                 1.7533
 Frc consts  --      2.4004                 1.6370                 1.8811
 IR Inten    --     75.4330               123.2992                62.9562

                     91                     92                     93
                      A                      A                      A
 Frequencies --   1383.3857              1387.7373              1408.5034
 Red. masses --      2.2032                 1.3813                 3.3680
 Frc consts  --      2.4843                 1.5673                 3.9367
 IR Inten    --    115.1761                15.0978                42.2126

                     94                     95                     96
                      A                      A                      A
 Frequencies --   1411.6484              1445.8830              1536.2941
 Red. masses --      3.2873                 1.6165                 6.0495
 Frc consts  --      3.8596                 1.9910                 8.4124
 IR Inten    --    201.9580                42.4031               150.8852

                     97                     98                     99
                      A                      A                      A
 Frequencies --   1627.0394              3184.3302              3748.7685
 Red. masses --      6.4393                 1.0697                 1.0662
 Frc consts  --     10.0435                 6.3905                 8.8277
 IR Inten    --    169.7872                99.6087                57.6765

                    100                    101                    102
                      A                      A                      A
 Frequencies --   3936.6673              3947.5250              3983.7597
 Red. masses --      1.0479                 1.0439                 1.0427
 Frc consts  --      9.5682                 9.5847                 9.7495
 IR Inten    --     29.1862                28.7364                59.3037

                    103                    104                    105
                      A                      A                      A
 Frequencies --   4009.5093              4032.6993              4038.1553
 Red. masses --      1.0421                 1.0801                 1.0512
 Frc consts  --      9.8702                10.3493                10.0995
 IR Inten    --     37.1761                 0.3170                18.6465

                    106                    107                    108
                      A                      A                      A
 Frequencies --   4044.1268              4071.1337              4075.5080
 Red. masses --      1.0342                 1.1040                 1.0999
 Frc consts  --      9.9660                10.7808                10.7636
 IR Inten    --     39.3131                 9.1719                 7.3234

                    109                    110                    111
                      A                      A                      A
 Frequencies --   4116.6279              4142.9942              4167.1443
 Red. masses --      1.0692                 1.0999                 1.1017
 Frc consts  --     10.6761                11.1231                11.2715
 IR Inten    --     15.8905                 6.3031                12.9639

                    112                    113                    114
                      A                      A                      A
 Frequencies --   4204.2512              4228.0849              4259.5255
 Red. masses --      1.1064                 1.1080                 1.0844
 Frc consts  --     11.5225                11.6698                11.5921
 IR Inten    --      7.6194                 7.8447                 9.0654

                    115                    116                    117
                      A                      A                      A
 Frequencies --   4291.6209              4291.9286              4296.2817
 Red. masses --      1.0732                 1.1052                 1.1019
 Frc consts  --     11.6461                11.9946                11.9836
 IR Inten    --     15.3530                16.5613                11.1003

                    118                    119                    120
                      A                      A                      A
 Frequencies --   4323.3136              4350.4615              4397.6488
 Red. masses --      1.1012                 1.1064                 1.0960
 Frc consts  --     12.1271                12.3378                12.4885
 IR Inten    --     20.3740                 8.3685                 6.1907

                    121                    122                    123
                      A                      A                      A
 Frequencies --   4439.5088              4785.3373              4828.5115
 Red. masses --      1.0956                 1.0849                 1.0945
 Frc consts  --     12.7224                14.6379                15.0351
 IR Inten    --     16.2051                 1.1779                14.1154

 - Thermochemistry -
 -------------------
 Temperature   298.150 Kelvin.  Pressure   1.00000 Atm.
 Atom     1 has atomic number  6 and mass  12.00000

 Molecular mass:   284.15310 amu.
 Principal axes and moments of inertia in atomic units:
                           1         2         3
     Eigenvalues --  2935.402856124.052166959.44029
           X            0.99998   0.00566   0.00255
           Y           -0.00562   0.99982  -0.01831
           Z           -0.00266   0.01830   0.99983
 This molecule is an asymmetric top.
 Rotational symmetry number  1.
 Warning -- assumption of classical behavior for rotation
           may cause significant error
 Rotational temperatures (Kelvin)      0.02951     0.01414     0.01245
 Rotational constants (GHZ):           0.61482     0.29470     0.25932
   27 imaginary frequencies ignored.
 Zero-point vibrational energy    1026015.2 (Joules/Mol)
                                  245.22352 (Kcal/Mol)
 Warning -- explicit consideration of  16 degrees of freedom as
           vibrations may cause significant error
 Vibrational temperatures:     27.75   117.13   214.16   260.64   325.45
          (Kelvin)            408.07   464.52   501.68   519.57   614.93
                              625.06   666.35   708.08   715.16   821.43
                              885.81   902.59   910.97   924.04   946.42
                              966.55   985.40   998.24  1071.33  1094.98
                             1118.20  1134.80  1143.98  1147.99  1156.80
                             1186.52  1251.23  1261.95  1301.26  1350.34
                             1408.03  1419.03  1449.43  1469.82  1478.57
                             1504.39  1544.71  1578.09  1620.61  1684.97
                             1699.87  1704.52  1722.08  1758.61  1761.38
                             1773.88  1779.62  1790.57  1809.02  1816.74
                             1830.43  1833.00  1836.66  1843.87  1863.39
                             1890.94  1914.09  1941.54  1990.38  1996.64
                             2026.52  2031.05  2080.30  2210.38  2340.95
                             4581.54  5393.64  5663.99  5679.61  5731.74
                             5768.79  5802.15  5810.00  5818.60  5857.45
                             5863.75  5922.91  5960.84  5995.59  6048.98
                             6083.27  6128.51  6174.69  6175.13  6181.39
                             6220.28  6259.34  6327.24  6387.46  6885.03
                             6947.15

 Zero-point correction=                           0.390789 (Hartree/Particle)
 Thermal correction to Energy=                    0.402582
 Thermal correction to Enthalpy=                  0.403527
 Thermal correction to Gibbs Free Energy=         0.351427
 Sum of electronic and zero-point Energies=          -1408.352498
 Sum of electronic and thermal Energies=             -1408.340704
 Sum of electronic and thermal Enthalpies=           -1408.339760
 Sum of electronic and thermal Free Energies=        -1408.391859

                     E (Thermal)             CV                S
                      KCal/Mol        Cal/Mol-Kelvin    Cal/Mol-Kelvin
 Total                  252.624             51.470            109.653
 Electronic               0.000              0.000              0.000
 Translational            0.889              2.981             42.831
 Rotational               0.889              2.981             33.192
 Vibrational            250.847             45.509             33.630
 Vibration     1          0.593              1.986              6.706
 Vibration     2          0.600              1.962              3.857
 Vibration     3          0.618              1.904              2.687
 Vibration     4          0.630              1.865              2.317
 Vibration     5          0.650              1.801              1.909
 Vibration     6          0.682              1.704              1.512
 Vibration     7          0.708              1.630              1.296
 Vibration     8          0.726              1.578              1.172
 Vibration     9          0.735              1.552              1.117
 Vibration    10          0.789              1.411              0.867
 Vibration    11          0.795              1.395              0.844
 Vibration    12          0.821              1.332              0.757
 Vibration    13          0.848              1.267              0.678
 Vibration    14          0.853              1.257              0.666
 Vibration    15          0.927              1.094              0.502
 Vibration    16          0.975              0.999              0.423

 Normal termination of Gaussian 16 at Sat Mar  4 12:56:23 2023.
