 Gaussian 16, Revision C.01,
 Gaussian 16:  ES64L-G16RevC.01  3-Jul-2019

 ----------------------------------------------------------------------
 #p pop=(regular,nbo,savenbos) freq=noraman def2svp empiricaldispersion
 =gd3bj output=wfx pbe1pbe
 ----------------------------------------------------------------------

 ----------------------------------------
 ONUFAF_Complex_4_Ligand_1_NN_Cu_oriented
 ----------------------------------------
 Symbolic Z-matrix:
 Charge =  0 Multiplicity = 1

                         Standard orientation:
 ---------------------------------------------------------------------
 Center     Atomic      Atomic             Coordinates (Angstroms)
 Number     Number       Type             X           Y           Z
 ---------------------------------------------------------------------
      1          6           0        6.029889    0.076976    1.280847
      2          1           0        6.614405    0.457146    0.619831
      3          1           0        5.464650    0.764812    1.640518
      4          6           0        6.060447   -2.093936    0.084080
      5          1           0        6.651518   -1.726600   -0.577362
      6          1           0        5.509781   -2.770009   -0.319569
      7          6           0        5.176119   -0.989713    0.642175
      8          1           0        4.597684   -1.376508    1.331475
      9          6           0        4.302668   -0.435675   -0.450390
     10          1           0        4.866054   -0.040847   -1.149576
     11          6           0        3.383070   -1.470960   -1.073886
     12          1           0        3.681693   -1.704018   -1.966699
     13          1           0        3.350822   -2.274559   -0.532151
     14          6           0        2.227705    0.298604   -0.388350
     15          6           0        1.003914    1.117447   -0.190226
     16          6           0        1.193116    2.461607    0.150145
     17          1           0        2.047510    2.811779    0.258465
     18          6           0        0.080740    3.252418    0.319821
     19          1           0        0.176876    4.159901    0.498128
     20          6           0       -1.185657    2.687597    0.223755
     21          1           0       -1.955751    3.190628    0.370636
     22          6           0       -1.250543    1.352763   -0.097380
     23          6           0       -2.551971    0.680672   -0.271992
     24          6           0       -4.752599    0.590785   -0.330005
     25          1           0       -5.244723    0.950206   -1.084262
     26          1           0       -5.353766    0.519463    0.426423
     27          6           0       -4.162065   -0.780900   -0.678994
     28          1           0       -4.426092   -1.017195   -1.593901
     29          6           0       -4.542238   -1.927810    0.263620
     30          1           0       -4.077883   -2.736369   -0.042529
     31          6           0       -4.118668   -1.664272    1.706250
     32          1           0       -4.534419   -0.859127    2.021046
     33          1           0       -3.164309   -1.566487    1.746676
     34          1           0       -4.390754   -2.401053    2.259849
     35          7           0        3.372294    0.586400    0.060134
     36          7           0       -0.176939    0.568942   -0.329364
     37          7           0       -2.694896   -0.511547   -0.649418
     38          8           0        2.077716   -0.823364   -1.117370
     39          8           0       -3.642048    1.432116   -0.010463
     40          6           0       -6.038706   -2.192598    0.186477
     41          1           0       -6.223959   -3.079564    0.500229
     42          1           0       -6.333608   -2.106150   -0.724158
     43          1           0       -6.504176   -1.555534    0.733869
     44          1           0        6.552352   -0.311376    1.984646
     45          1           0        6.576226   -2.483150    0.795932
 ---------------------------------------------------------------------

 SCF Done:  E(RPBE1PBE) =  -974.198539828     A.U. after   15 cycles

 The electronic state is 1-A.
 Alpha  occ. eigenvalues --  -19.24511 -19.23814 -14.39058 -14.36483 -14.36081
 Alpha  occ. eigenvalues --  -10.31331 -10.30946 -10.28104 -10.28015 -10.25990
 Alpha  occ. eigenvalues --  -10.25820 -10.24570 -10.24332 -10.24199 -10.23674
 Alpha  occ. eigenvalues --  -10.23335 -10.21552 -10.21315 -10.18304 -10.18218
 Alpha  occ. eigenvalues --  -10.17361 -10.17022  -1.11469  -1.10548  -0.98032
 Alpha  occ. eigenvalues --   -0.92291  -0.91780  -0.85330  -0.84396  -0.84034
 Alpha  occ. eigenvalues --   -0.81507  -0.78421  -0.76615  -0.73456  -0.73410
 Alpha  occ. eigenvalues --   -0.69045  -0.68723  -0.67264  -0.66860  -0.61865
 Alpha  occ. eigenvalues --   -0.60923  -0.59823  -0.57197  -0.55647  -0.54116
 Alpha  occ. eigenvalues --   -0.53840  -0.51711  -0.51297  -0.51025  -0.49306
 Alpha  occ. eigenvalues --   -0.48210  -0.47633  -0.47191  -0.46400  -0.46058
 Alpha  occ. eigenvalues --   -0.45358  -0.44603  -0.44248  -0.43049  -0.42595
 Alpha  occ. eigenvalues --   -0.42448  -0.42348  -0.41201  -0.40353  -0.39861
 Alpha  occ. eigenvalues --   -0.38988  -0.38477  -0.38039  -0.35708  -0.35672
 Alpha  occ. eigenvalues --   -0.34970  -0.34830  -0.33784  -0.33617  -0.31040
 Alpha  occ. eigenvalues --   -0.29403  -0.28512  -0.27841  -0.26551  -0.25779
 Alpha  occ. eigenvalues --   -0.24917
 Alpha virt. eigenvalues --   -0.04531  -0.04220   0.04483   0.07690   0.07960
 Alpha virt. eigenvalues --    0.09554   0.10046   0.10573   0.11323   0.11410
 Alpha virt. eigenvalues --    0.11611   0.12028   0.12578   0.15156   0.15404

 Mulliken charges:
               1
     1  C    0.236447
     2  H   -0.038272
     3  H   -0.018890
     4  C    0.199536
     5  H   -0.026297
     6  H   -0.036551
     7  C   -0.166428
     8  H   -0.032323
     9  C   -0.064201
    10  H   -0.019839
    11  C    0.453744
    12  H   -0.016294
    13  H   -0.023226
    14  C    0.175677
    15  C   -0.017122
    16  C    0.119999
    17  H   -0.092293
    18  C    0.168248
    19  H   -0.089602
    20  C    0.118223
    21  H   -0.091906
    22  C   -0.031185
    23  C    0.168663
    24  C    0.430174
    25  H   -0.018500
    26  H   -0.030846
    27  C   -0.058342
    28  H   -0.016148
    29  C   -0.159674
    30  H   -0.006126
    31  C    0.200172
    32  H   -0.041151
    33  H   -0.004935
    34  H   -0.025664
    35  N   -0.229213
    36  N   -0.090373
    37  N   -0.180556
    38  O   -0.345017
    39  O   -0.370167
    40  C    0.201423
    41  H   -0.018844
    42  H   -0.031134
    43  H   -0.030120
    44  H   -0.031086
    45  H   -0.019981
 Sum of Mulliken charges =  -0.00000

 Dipole moment (field-independent basis, Debye):
    X=             -0.6048    Y=              0.4819    Z=              0.1176  Tot=              0.7822
 Quadrupole moment (field-independent basis, Debye-Ang):
   XX=           -103.3141   YY=           -119.6827   ZZ=           -128.9569
   XY=             -4.7517   XZ=             -2.4612   YZ=             -0.7456

  Exact polarizability:     258.999       4.152     186.055       7.069      12.026     124.994
 Approx polarizability:     313.417       8.179     283.047      10.939      30.503     186.796

 Summary of Natural Population Analysis:

                                       Natural Population
                Natural  -----------------------------------------------
    Atom  No    Charge         Core      Valence    Rydberg      Total
 -----------------------------------------------------------------------
      C    1   -0.54359      1.99917     4.53330    0.01112     6.54359
      H    2    0.17888      0.00000     0.81809    0.00302     0.82112
      H    3    0.19944      0.00000     0.79708    0.00348     0.80056
      C    4   -0.54666      1.99917     4.53709    0.01040     6.54666
      H    5    0.18114      0.00000     0.81572    0.00314     0.81886
      H    6    0.17992      0.00000     0.81748    0.00260     0.82008
      C    7   -0.18173      1.99904     4.16816    0.01452     6.18173
      H    8    0.18369      0.00000     0.81070    0.00562     0.81631
      C    9   -0.03716      1.99896     4.01647    0.02173     6.03716
      H   10    0.18309      0.00000     0.81186    0.00505     0.81691
      C   11    0.00266      1.99883     3.98183    0.01668     5.99734
      H   12    0.17263      0.00000     0.82471    0.00266     0.82737
      H   13    0.16167      0.00000     0.83481    0.00352     0.83833
      C   14    0.58995      1.99901     3.36704    0.04400     5.41005
      C   15    0.17542      1.99895     3.79932    0.02631     5.82458
      C   16   -0.15940      1.99905     4.14574    0.01461     6.15940
      H   17    0.19100      0.00000     0.80522    0.00378     0.80900
      C   18   -0.12182      1.99911     4.10888    0.01382     6.12182
      H   19    0.17364      0.00000     0.82350    0.00285     0.82636
      C   20   -0.17537      1.99903     4.16135    0.01499     6.17537
      H   21    0.19161      0.00000     0.80503    0.00336     0.80839
      C   22    0.15895      1.99893     3.81686    0.02525     5.84105
      C   23    0.56779      1.99900     3.39031    0.04291     5.43221
      C   24   -0.00285      1.99886     3.98570    0.01829     6.00285
      H   25    0.16706      0.00000     0.83001    0.00294     0.83294
      H   26    0.16390      0.00000     0.83284    0.00326     0.83610
      C   27   -0.03664      1.99898     4.01626    0.02141     6.03664
      H   28    0.18867      0.00000     0.80745    0.00387     0.81133
      C   29   -0.18392      1.99906     4.17031    0.01455     6.18392
      H   30    0.19349      0.00000     0.80126    0.00525     0.80651
      C   31   -0.55139      1.99916     4.54153    0.01070     6.55139
      H   32    0.17627      0.00000     0.82106    0.00267     0.82373
      H   33    0.19782      0.00000     0.79885    0.00332     0.80218
      H   34    0.18918      0.00000     0.80828    0.00254     0.81082
      N   35   -0.56418      1.99930     5.54852    0.01636     7.56418
      N   36   -0.42318      1.99922     5.40728    0.01668     7.42318
      N   37   -0.50493      1.99930     5.48930    0.01632     7.50493
      O   38   -0.54381      1.99968     6.53380    0.01033     8.54381
      O   39   -0.57367      1.99968     6.56380    0.01019     8.57367
      C   40   -0.54897      1.99917     4.53948    0.01033     6.54897
      H   41    0.19290      0.00000     0.80455    0.00255     0.80710
      H   42    0.18261      0.00000     0.81452    0.00287     0.81739
      H   43    0.17873      0.00000     0.81840    0.00287     0.82127
      H   44    0.18475      0.00000     0.81261    0.00265     0.81525
      H   45    0.19242      0.00000     0.80495    0.00262     0.80758
 =======================================================================
   * Total *    0.00000     43.98069   117.54133    0.47798   162.00000

 ******   32 imaginary frequencies (negative Signs) ******

                      1                      2                      3
                      A                      A                      A
 Frequencies --  -1414.9154             -1390.8758             -1385.5631
 Red. masses --      1.0799                 1.0097                 1.0081
 Frc consts  --      1.2738                 1.1509                 1.1402
 IR Inten    --     35.4949                 0.1810                 0.0710

                      4                      5                      6
                      A                      A                      A
 Frequencies --  -1383.4333             -1374.4112             -1292.7060
 Red. masses --      1.0118                 1.0091                 1.0310
 Frc consts  --      1.1410                 1.1231                 1.0151
 IR Inten    --      0.2412                 0.0355                 0.6534

                      7                      8                      9
                      A                      A                      A
 Frequencies --  -1191.4839             -1044.3774             -1029.1287
 Red. masses --      1.0290                 1.0574                 1.0720
 Frc consts  --      0.8607                 0.6795                 0.6690
 IR Inten    --      0.8287                 9.0311                 5.8839

                     10                     11                     12
                      A                      A                      A
 Frequencies --  -1023.6230             -1022.5743             -1008.0713
 Red. masses --      1.0569                 1.0477                 1.0347
 Frc consts  --      0.6524                 0.6455                 0.6195
 IR Inten    --      2.0389                 3.2060                 9.5773

                     13                     14                     15
                      A                      A                      A
 Frequencies --   -998.7685              -988.1699              -983.5701
 Red. masses --      1.0393                 1.0265                 1.0324
 Frc consts  --      0.6108                 0.5906                 0.5884
 IR Inten    --      3.4483                 4.8378                 3.8565

                     16                     17                     18
                      A                      A                      A
 Frequencies --   -979.8223              -967.9672              -946.1613
 Red. masses --      1.0360                 1.0413                 1.0836
 Frc consts  --      0.5860                 0.5748                 0.5715
 IR Inten    --      6.3055                 8.8401                 1.1315

                     19                     20                     21
                      A                      A                      A
 Frequencies --   -858.9579              -774.3875              -518.1814
 Red. masses --      1.0972                 1.0673                 1.4949
 Frc consts  --      0.4769                 0.3771                 0.2365
 IR Inten    --     22.8111                13.2590                 0.9085

                     22                     23                     24
                      A                      A                      A
 Frequencies --   -487.2247              -374.9447              -358.5763
 Red. masses --      1.5890                 1.7330                 1.7991
 Frc consts  --      0.2223                 0.1435                 0.1363
 IR Inten    --      0.9689                 1.0850                 2.6711

                     25                     26                     27
                      A                      A                      A
 Frequencies --   -349.7796              -346.1325              -286.7129
 Red. masses --      1.8320                 2.0348                 1.5179
 Frc consts  --      0.1321                 0.1436                 0.0735
 IR Inten    --      7.7739                 7.5284                 4.4913

                     28                     29                     30
                      A                      A                      A
 Frequencies --   -258.6301              -250.2530              -213.6665
 Red. masses --      2.4859                 2.3115                 2.2882
 Frc consts  --      0.0980                 0.0853                 0.0615
 IR Inten    --      0.7455                 3.2695                 3.6720

                     31                     32                     33
                      A                      A                      A
 Frequencies --   -146.8016              -102.5243               194.8120
 Red. masses --      2.3233                 2.4215                 4.3523
 Frc consts  --      0.0295                 0.0150                 0.0973
 IR Inten    --      6.5597                 7.4352                 3.3530

                     34                     35                     36
                      A                      A                      A
 Frequencies --    203.2687               204.8538               271.2872
 Red. masses --      9.3106                 3.9187                 7.8075
 Frc consts  --      0.2267                 0.0969                 0.3385
 IR Inten    --      0.1102                 7.1994                 0.0799

                     37                     38                     39
                      A                      A                      A
 Frequencies --    274.4663               339.2372               366.1899
 Red. masses --      4.1171                 4.4899                 2.1530
 Frc consts  --      0.1827                 0.3044                 0.1701
 IR Inten    --      2.3161                 3.6321                10.4566

                     40                     41                     42
                      A                      A                      A
 Frequencies --    374.6372               400.4383               421.2278
 Red. masses --      1.8966                 1.1714                 1.4152
 Frc consts  --      0.1568                 0.1107                 0.1479
 IR Inten    --      6.3017                19.4780                 6.4695

                     43                     44                     45
                      A                      A                      A
 Frequencies --    441.6415               450.1068               460.1491
 Red. masses --      2.1116                 2.0342                 1.7403
 Frc consts  --      0.2427                 0.2428                 0.2171
 IR Inten    --     13.2911                24.1103                 4.3614

                     46                     47                     48
                      A                      A                      A
 Frequencies --    465.7245               484.4640               521.0812
 Red. masses --      4.6241                 4.6095                 7.7401
 Frc consts  --      0.5909                 0.6374                 1.2382
 IR Inten    --      0.8309                 8.5964                 3.1163

                     49                     50                     51
                      A                      A                      A
 Frequencies --    530.0135               576.0646               609.0758
 Red. masses --      5.6417                 4.5576                 2.0070
 Frc consts  --      0.9338                 0.8911                 0.4387
 IR Inten    --      1.0850                 5.1639                 0.2290

                     52                     53                     54
                      A                      A                      A
 Frequencies --    621.4489               639.6343               656.5319
 Red. masses --      3.3676                 2.3195                 3.1856
 Frc consts  --      0.7663                 0.5591                 0.8090
 IR Inten    --     12.0024                 4.7452                 4.2314

                     55                     56                     57
                      A                      A                      A
 Frequencies --    686.3549               691.9547               693.4121
 Red. masses --      3.9896                 3.3687                 2.6130
 Frc consts  --      1.1073                 0.9503                 0.7402
 IR Inten    --     10.6758                 6.8706                 2.6415

                     58                     59                     60
                      A                      A                      A
 Frequencies --    721.6482               731.1314               737.0571
 Red. masses --      3.2693                 3.5120                 2.9442
 Frc consts  --      1.0031                 1.1061                 0.9424
 IR Inten    --      9.1849                 8.6113                 7.6503

                     61                     62                     63
                      A                      A                      A
 Frequencies --    775.2449               784.3952               787.8530
 Red. masses --      3.0329                 1.7829                 1.7107
 Frc consts  --      1.0739                 0.6463                 0.6256
 IR Inten    --      5.9644                 3.6643                 5.3583

                     64                     65                     66
                      A                      A                      A
 Frequencies --    795.9021               815.7768               828.3219
 Red. masses --      3.3047                 3.7550                 3.2520
 Frc consts  --      1.2334                 1.4723                 1.3146
 IR Inten    --     25.4457                 5.9052                14.4003

                     67                     68                     69
                      A                      A                      A
 Frequencies --    841.2170               847.3934               869.6909
 Red. masses --      4.7170                 9.3198                 3.1805
 Frc consts  --      1.9667                 3.9430                 1.4174
 IR Inten    --     39.6825                 1.8214                 4.0519

                     70                     71                     72
                      A                      A                      A
 Frequencies --    878.7987               894.5848               941.5744
 Red. masses --      2.6117                 1.9740                 1.7171
 Frc consts  --      1.1884                 0.9308                 0.8969
 IR Inten    --     25.4716                22.3599                13.4899

                     73                     74                     75
                      A                      A                      A
 Frequencies --    960.7031               966.5096               969.5837
 Red. masses --      3.0968                 2.2975                 2.6288
 Frc consts  --      1.6840                 1.2645                 1.4561
 IR Inten    --     19.3605                34.9448                16.3339

                     76                     77                     78
                      A                      A                      A
 Frequencies --    978.5582               981.5055               988.9252
 Red. masses --      1.0927                 1.1028                 2.5057
 Frc consts  --      0.6165                 0.6260                 1.4438
 IR Inten    --      5.9924                 7.6557                 4.5925

                     79                     80                     81
                      A                      A                      A
 Frequencies --   1007.3054              1007.8940              1011.7484
 Red. masses --      1.0808                 1.0757                 1.9070
 Frc consts  --      0.6461                 0.6438                 1.1501
 IR Inten    --      6.8166                 2.6002                 1.6982

                     82                     83                     84
                      A                      A                      A
 Frequencies --   1023.4628              1039.3715              1040.5549
 Red. masses --      1.7306                 1.6460                 2.7714
 Frc consts  --      1.0680                 1.0477                 1.7680
 IR Inten    --     10.0900                 7.1929                 0.9428

                     85                     86                     87
                      A                      A                      A
 Frequencies --   1042.8533              1072.4552              1092.9647
 Red. masses --      3.8375                 2.0060                 3.0859
 Frc consts  --      2.4589                 1.3594                 2.1719
 IR Inten    --      3.0533                11.0414                10.1407

                     88                     89                     90
                      A                      A                      A
 Frequencies --   1099.9146              1124.0489              1158.6295
 Red. masses --      2.0352                 2.2655                 3.8797
 Frc consts  --      1.4507                 1.6865                 3.0686
 IR Inten    --     13.6271                32.7681                 1.5194

                     91                     92                     93
                      A                      A                      A
 Frequencies --   1167.9011              1171.8038              1210.5855
 Red. masses --      2.6772                 3.9605                 6.0582
 Frc consts  --      2.1515                 3.2041                 5.2310
 IR Inten    --      6.0956                 0.9174                54.6331

                     94                     95                     96
                      A                      A                      A
 Frequencies --   1221.3070              1240.1232              1259.7767
 Red. masses --      5.2662                 5.6090                 5.0617
 Frc consts  --      4.6281                 5.0824                 4.7330
 IR Inten    --      0.8535                 2.6929                 4.9804

                     97                     98                     99
                      A                      A                      A
 Frequencies --   1305.0221              1323.1053              1367.6300
 Red. masses --      8.5471                 6.6986                 9.2020
 Frc consts  --      8.5764                 6.9092                10.1407
 IR Inten    --    220.5455                20.1150                24.4076

                    100                    101                    102
                      A                      A                      A
 Frequencies --   1398.2081              1487.8121              1509.1087
 Red. masses --      9.9814                10.7584                11.2454
 Frc consts  --     11.4970                14.0312                15.0892
 IR Inten    --     42.8471                52.1084                18.1539

                    103                    104                    105
                      A                      A                      A
 Frequencies --   1661.7524              1689.5075              1811.0476
 Red. masses --     10.8380                11.4842                12.3077
 Frc consts  --     17.6332                19.3140                23.7841
 IR Inten    --     26.3085                68.3285               148.6719

                    106                    107                    108
                      A                      A                      A
 Frequencies --   1827.6920              4344.8658              4348.8134
 Red. masses --     12.2733                 1.0875                 1.0876
 Frc consts  --     24.1557                12.0954                12.1184
 IR Inten    --    100.0496                 8.6213                 3.8529

                    109                    110                    111
                      A                      A                      A
 Frequencies --   4353.6939              4366.6925              4432.6117
 Red. masses --      1.0881                 1.0873                 1.0588
 Frc consts  --     12.1520                12.2148                12.2575
 IR Inten    --     13.2748                13.3288                12.3416

                    112                    113                    114
                      A                      A                      A
 Frequencies --   4437.0577              4456.9404              4464.3910
 Red. masses --      1.0595                 1.0321                 1.0324
 Frc consts  --     12.2894                12.0799                12.1237
 IR Inten    --     17.1973                 9.7892                11.7608

                    115                    116                    117
                      A                      A                      A
 Frequencies --   4467.2193              4468.2618              4561.0194
 Red. masses --      1.0324                 1.0325                 1.1123
 Frc consts  --     12.1383                12.1460                13.6337
 IR Inten    --      6.4058                11.6875                 2.8962

                    118                    119                    120
                      A                      A                      A
 Frequencies --   4561.0872              4659.7166              4663.3069
 Red. masses --      1.1115                 1.1068                 1.1065
 Frc consts  --     13.6233                14.1591                14.1768
 IR Inten    --      5.2872                 5.7528                 5.3633

                    121                    122                    123
                      A                      A                      A
 Frequencies --   4669.2628              4669.3488              4669.4515
 Red. masses --      1.1067                 1.1069                 1.1066
 Frc consts  --     14.2157                14.2192                14.2154
 IR Inten    --      1.3495                 3.5969                 7.4081

                    124                    125                    126
                      A                      A                      A
 Frequencies --   4680.7084              4683.8439              4684.3114
 Red. masses --      1.1066                 1.1069                 1.1069
 Frc consts  --     14.2842                14.3075                14.3107
 IR Inten    --      2.8023                 3.5237                 4.2071

                    127                    128                    129
                      A                      A                      A
 Frequencies --   5024.5185              5040.0483              5052.0826
 Red. masses --      1.0893                 1.0894                 1.0914
 Frc consts  --     16.2032                16.3038                16.4124
 IR Inten    --      5.3072                 3.0178                 5.3010

 - Thermochemistry -
 -------------------
 Temperature   298.150 Kelvin.  Pressure   1.00000 Atm.
 Atom     1 has atomic number  6 and mass  12.00000

 Molecular mass:   301.17903 amu.
 Principal axes and moments of inertia in atomic units:
                           1         2         3
     Eigenvalues --  3122.76441********************
           X            0.99999   0.00326  -0.00004
           Y           -0.00326   0.99998  -0.00501
           Z            0.00002   0.00501   0.99999
 This molecule is an asymmetric top.
 Rotational symmetry number  1.
 Warning -- assumption of classical behavior for rotation
           may cause significant error
 Rotational temperatures (Kelvin)      0.02774     0.00551     0.00488
 Rotational constants (GHZ):           0.57793     0.11483     0.10158
   32 imaginary frequencies ignored.
 Zero-point vibrational energy    1021654.5 (Joules/Mol)
                                  244.18128 (Kcal/Mol)
 Warning -- explicit consideration of  19 degrees of freedom as
           vibrations may cause significant error
 Vibrational temperatures:    280.29   292.46   294.74   390.32   394.90
          (Kelvin)            488.09   526.87   539.02   576.14   606.05
                              635.42   647.60   662.05   670.07   697.04
                              749.72   762.57   828.83   876.32   894.13
                              920.29   944.60   987.51   995.57   997.67
                             1038.29  1051.94  1060.46  1115.40  1128.57
                             1133.54  1145.13  1173.72  1191.77  1210.32
                             1219.21  1251.29  1264.40  1287.11  1354.72
                             1382.24  1390.59  1395.01  1407.93  1412.17
                             1422.84  1449.29  1450.13  1455.68  1472.53
                             1495.42  1497.13  1500.43  1543.02  1572.53
                             1582.53  1617.26  1667.01  1680.35  1685.96
                             1741.76  1757.19  1784.26  1812.54  1877.64
                             1903.65  1967.71  2011.71  2140.63  2171.27
                             2390.89  2430.82  2605.69  2629.64  6251.29
                             6256.97  6263.99  6282.70  6377.54  6383.94
                             6412.54  6423.26  6427.33  6428.83  6562.29
                             6562.39  6704.29  6709.46  6718.03  6718.15
                             6718.30  6734.50  6739.01  6739.68  7229.16
                             7251.51  7268.82

 Zero-point correction=                           0.389128 (Hartree/Particle)
 Thermal correction to Energy=                    0.400867
 Thermal correction to Enthalpy=                  0.401811
 Thermal correction to Gibbs Free Energy=         0.351531
 Sum of electronic and zero-point Energies=           -973.809412
 Sum of electronic and thermal Energies=              -973.797673
 Sum of electronic and thermal Enthalpies=            -973.796729
 Sum of electronic and thermal Free Energies=         -973.847009

                     E (Thermal)             CV                S
                      KCal/Mol        Cal/Mol-Kelvin    Cal/Mol-Kelvin
 Total                  251.548             56.712            105.825
 Electronic               0.000              0.000              0.000
 Translational            0.889              2.981             43.004
 Rotational               0.889              2.981             35.121
 Vibrational            249.770             50.751             27.699
 Vibration     1          0.635              1.847              2.182
 Vibration     2          0.639              1.835              2.103
 Vibration     3          0.640              1.833              2.089
 Vibration     4          0.675              1.726              1.588
 Vibration     5          0.677              1.721              1.568
 Vibration     6          0.719              1.597              1.216
 Vibration     7          0.739              1.542              1.096
 Vibration     8          0.746              1.524              1.061
 Vibration     9          0.766              1.469              0.961
 Vibration    10          0.784              1.424              0.888
 Vibration    11          0.801              1.379              0.821
 Vibration    12          0.809              1.361              0.795
 Vibration    13          0.818              1.338              0.766
 Vibration    14          0.823              1.326              0.750
 Vibration    15          0.841              1.285              0.698
 Vibration    16          0.876              1.203              0.607
 Vibration    17          0.885              1.184              0.587
 Vibration    18          0.932              1.083              0.493
 Vibration    19          0.968              1.013              0.434

 Normal termination of Gaussian 16 at Sat Mar  4 12:59:36 2023.
