 Gaussian 16, Revision C.01,
 Gaussian 16:  ES64L-G16RevC.01  3-Jul-2019

 ----------------------------------------------------------------------
 #p pop=(regular,nbo,savenbos) freq=noraman def2svp empiricaldispersion
 =gd3bj output=wfx pbe1pbe
 ----------------------------------------------------------------------

 ----------------------------------------
 PABVIB_Complex_1_Ligand_1_ON_Cu_oriented
 ----------------------------------------
 Symbolic Z-matrix:
 Charge = -1 Multiplicity = 1

                         Standard orientation:
 ---------------------------------------------------------------------
 Center     Atomic      Atomic             Coordinates (Angstroms)
 Number     Number       Type             X           Y           Z
 ---------------------------------------------------------------------
      1          6           0       -2.275615   -0.201563   -0.586780
      2          7           0       -1.610594    0.717011    0.050831
      3          1           0       -1.871674    1.067536    0.730921
      4          8           0       -1.966982   -0.461949   -1.776987
      5          6           0       -3.431799   -0.927780    0.076972
      6          6           0       -4.685673   -0.075494   -0.170076
      7          1           0       -4.590251    0.770405    0.274854
      8          1           0       -5.456134   -0.532475    0.174176
      9          1           0       -4.793472    0.069508   -1.112627
     10          6           0       -3.567136   -2.308307   -0.550898
     11          1           0       -3.752055   -2.217616   -1.488087
     12          1           0       -4.287112   -2.783099   -0.127421
     13          1           0       -2.749263   -2.796394   -0.431049
     14          6           0       -3.199128   -1.090861    1.578135
     15          1           0       -2.372777   -1.557431    1.724565
     16          1           0       -3.922165   -1.593960    1.960659
     17          1           0       -3.156633   -0.226311    1.991562
     18         16           0        0.624524    1.886085    0.170950
     19          7           0       -0.681696    1.479896   -0.705223
     20          8           0        1.216061    3.007739   -0.486703
     21          6           0        1.787260    0.553085    0.105846
     22          6           0        2.944948    0.685931   -0.625964
     23          1           0        3.124351    1.474665   -1.085439
     24          6           0        3.844542   -0.370149   -0.668909
     25          6           0        3.622623   -1.556329    0.007537
     26          6           0        2.451663   -1.663691    0.721117
     27          1           0        2.273147   -2.453216    1.178047
     28          6           0        1.529923   -0.628490    0.780993
     29          1           0        0.745237   -0.727939    1.270268
     30          6           0        4.635776   -2.680613   -0.034467
     31          1           0        5.368002   -2.472138    0.549924
     32          1           0        4.219793   -3.496806    0.251578
     33          8           0        0.219279    2.024881    1.549082
     34          1           0        4.622489   -0.276261   -1.169056
     35          1           0        4.960980   -2.783973   -0.931513
 ---------------------------------------------------------------------

 SCF Done:  E(RPBE1PBE) =  -1198.76057331     A.U. after   15 cycles

 The electronic state is 1-A.
 Alpha  occ. eigenvalues --  -89.03681 -19.01564 -19.01220 -18.99846 -14.26834
 Alpha  occ. eigenvalues --  -14.19099 -10.16033 -10.12988 -10.12773 -10.11555
 Alpha  occ. eigenvalues --  -10.10619 -10.10577 -10.10506 -10.10474 -10.10275
 Alpha  occ. eigenvalues --  -10.08141 -10.08114 -10.07013  -8.00578  -5.94812
 Alpha  occ. eigenvalues --   -5.94673  -5.94597  -0.96973  -0.89860  -0.84737
 Alpha  occ. eigenvalues --   -0.81457  -0.77729  -0.74212  -0.70672  -0.66742
 Alpha  occ. eigenvalues --   -0.66419  -0.63827  -0.63063  -0.62608  -0.53860
 Alpha  occ. eigenvalues --   -0.53327  -0.51428  -0.49121  -0.47603  -0.42302
 Alpha  occ. eigenvalues --   -0.39916  -0.38819  -0.38643  -0.37510  -0.37276
 Alpha  occ. eigenvalues --   -0.36849  -0.35671  -0.34157  -0.33872  -0.33014
 Alpha  occ. eigenvalues --   -0.32757  -0.32518  -0.30407  -0.29334  -0.28940
 Alpha  occ. eigenvalues --   -0.27681  -0.27000  -0.26638  -0.25502  -0.24677
 Alpha  occ. eigenvalues --   -0.23749  -0.23045  -0.19872  -0.17550  -0.15926
 Alpha  occ. eigenvalues --   -0.15888  -0.15333  -0.14953  -0.13255  -0.10180
 Alpha  occ. eigenvalues --   -0.07714  -0.04200
 Alpha virt. eigenvalues --    0.10545   0.11244   0.17132   0.17658   0.18657
 Alpha virt. eigenvalues --    0.21012   0.22269   0.22531   0.23329   0.23896
 Alpha virt. eigenvalues --    0.24517   0.25378   0.26739   0.27592   0.27851

 Mulliken charges:
               1
     1  C    0.144455
     2  N    0.091559
     3  H   -0.013945
     4  O   -0.347703
     5  C   -0.564058
     6  C    0.285226
     7  H   -0.041128
     8  H   -0.053788
     9  H   -0.028433
    10  C    0.301167
    11  H   -0.030625
    12  H   -0.070465
    13  H   -0.039602
    14  C    0.264806
    15  H   -0.028078
    16  H   -0.057319
    17  H   -0.033885
    18  S    0.846943
    19  N   -0.427076
    20  O   -0.510330
    21  C   -0.042056
    22  C    0.110959
    23  H   -0.118615
    24  C    0.057666
    25  C   -0.138089
    26  C    0.057810
    27  H   -0.138764
    28  C    0.148310
    29  H   -0.134081
    30  C    0.281062
    31  H   -0.015945
    32  H   -0.042702
    33  O   -0.548905
    34  H   -0.138591
    35  H   -0.025784
 Sum of Mulliken charges =  -1.00000

 Dipole moment (field-independent basis, Debye):
    X=              0.5315    Y=             -7.1772    Z=              3.5741  Tot=              8.0355
 Quadrupole moment (field-independent basis, Debye-Ang):
   XX=           -120.6586   YY=           -136.7074   ZZ=           -129.9272
   XY=             -7.5590   XZ=             -9.7149   YZ=             -2.8411

  Exact polarizability:     210.686     -12.867     156.940      -7.496      -6.400     117.919
 Approx polarizability:     265.892     -15.929     235.829     -17.428     -14.443     198.066

 Summary of Natural Population Analysis:

                                       Natural Population
                Natural  -----------------------------------------------
    Atom  No    Charge         Core      Valence    Rydberg      Total
 -----------------------------------------------------------------------
      C    1    0.66006      1.99911     3.28479    0.05604     5.33994
      N    2   -0.37571      1.99888     5.35220    0.02463     7.37571
      H    3    0.30580      0.00000     0.68551    0.00869     0.69420
      O    4   -0.69271      1.99976     6.68362    0.00933     8.69271
      C    5   -0.08365      1.99909     4.07051    0.01406     6.08365
      C    6   -0.54079      1.99913     4.52892    0.01274     6.54079
      H    7    0.18372      0.00000     0.81306    0.00322     0.81628
      H    8    0.17367      0.00000     0.82309    0.00325     0.82633
      H    9    0.19441      0.00000     0.80164    0.00396     0.80559
      C   10   -0.54532      1.99915     4.53072    0.01545     6.54532
      H   11    0.20041      0.00000     0.79466    0.00493     0.79959
      H   12    0.16883      0.00000     0.82813    0.00304     0.83117
      H   13    0.19059      0.00000     0.80637    0.00303     0.80941
      C   14   -0.55533      1.99915     4.54216    0.01402     6.55533
      H   15    0.19021      0.00000     0.80644    0.00335     0.80979
      H   16    0.17803      0.00000     0.81862    0.00335     0.82197
      H   17    0.18346      0.00000     0.81346    0.00308     0.81654
      S   18    2.28266      9.99813     3.47915    0.24006    13.71734
      N   19   -0.81836      1.99952     5.79629    0.02255     7.81836
      O   20   -0.98621      1.99976     6.97778    0.00867     8.98621
      C   21   -0.28460      1.99886     4.25499    0.03074     6.28460
      C   22   -0.15370      1.99898     4.13642    0.01831     6.15370
      H   23    0.18811      0.00000     0.80774    0.00415     0.81189
      C   24   -0.18959      1.99898     4.17517    0.01544     6.18959
      C   25   -0.02948      1.99901     4.01564    0.01483     6.02948
      C   26   -0.19306      1.99897     4.17888    0.01520     6.19306
      H   27    0.16201      0.00000     0.83473    0.00327     0.83799
      C   28   -0.14223      1.99899     4.12591    0.01733     6.14223
      H   29    0.18054      0.00000     0.81518    0.00428     0.81946
      C   30   -0.55529      1.99914     4.54704    0.00910     6.55529
      H   31    0.19000      0.00000     0.80719    0.00282     0.81000
      H   32    0.18598      0.00000     0.81132    0.00271     0.81402
      O   33   -1.02203      1.99977     7.01379    0.00847     9.02203
      H   34    0.16041      0.00000     0.83628    0.00331     0.83959
      H   35    0.18919      0.00000     0.80807    0.00274     0.81081
 =======================================================================
   * Total *   -1.00000     43.98437    99.40546    0.61017   144.00000

 ******   23 imaginary frequencies (negative Signs) ******

                      1                      2                      3
                      A                      A                      A
 Frequencies --  -2491.5977             -1963.3713             -1430.9695
 Red. masses --      1.0761                 1.0623                 1.0668
 Frc consts  --      3.9359                 2.4128                 1.2871
 IR Inten    --    121.3646                10.1397                37.3497

                      4                      5                      6
                      A                      A                      A
 Frequencies --  -1411.4197             -1390.8573             -1384.7672
 Red. masses --      1.0104                 1.0084                 1.0290
 Frc consts  --      1.1859                 1.1494                 1.1625
 IR Inten    --      1.9318                 0.0764                 0.2696

                      7                      8                      9
                      A                      A                      A
 Frequencies --  -1380.8077             -1378.0859             -1255.3891
 Red. masses --      1.0265                 1.0143                 1.0235
 Frc consts  --      1.1531                 1.1349                 0.9503
 IR Inten    --      0.6129                 0.0680                 0.2135

                     10                     11                     12
                      A                      A                      A
 Frequencies --  -1236.0329             -1029.8588             -1022.5775
 Red. masses --      1.0430                 1.0599                 1.0662
 Frc consts  --      0.9388                 0.6623                 0.6568
 IR Inten    --      0.2778                10.8572                30.9127

                     13                     14                     15
                      A                      A                      A
 Frequencies --  -1012.4335             -1009.6477              -999.0016
 Red. masses --      1.0412                 1.0522                 1.0486
 Frc consts  --      0.6288                 0.6320                 0.6166
 IR Inten    --      2.5363                 3.5213                 4.3301

                     16                     17                     18
                      A                      A                      A
 Frequencies --   -993.5639              -969.9239              -955.2098
 Red. masses --      1.0369                 1.0218                 1.0232
 Frc consts  --      0.6031                 0.5664                 0.5501
 IR Inten    --      0.9651                 1.4277                 0.8152

                     19                     20                     21
                      A                      A                      A
 Frequencies --   -909.8962              -899.8702              -819.5899
 Red. masses --      1.1211                 1.0583                 1.1062
 Frc consts  --      0.5469                 0.5049                 0.4378
 IR Inten    --      5.1304                11.5516                 0.1697

                     22                     23                     24
                      A                      A                      A
 Frequencies --   -722.4907               -94.3058                29.1291
 Red. masses --      1.0368                10.4997                 8.8479
 Frc consts  --      0.3189                 0.0550                 0.0044
 IR Inten    --     10.9904                 1.5150                 5.6655

                     25                     26                     27
                      A                      A                      A
 Frequencies --     85.5211               127.2573               175.1976
 Red. masses --      8.2072                 8.1413                 8.5674
 Frc consts  --      0.0354                 0.0777                 0.1549
 IR Inten    --      3.5584                 2.1096                 0.4805

                     28                     29                     30
                      A                      A                      A
 Frequencies --    191.4941               239.9343               264.0587
 Red. masses --      8.0779                 8.6985                 6.1086
 Frc consts  --      0.1745                 0.2950                 0.2510
 IR Inten    --      0.5665                 0.5770                 0.2907

                     31                     32                     33
                      A                      A                      A
 Frequencies --    275.4259               294.0359               301.5816
 Red. masses --      6.4791                 1.5992                 7.2692
 Frc consts  --      0.2896                 0.0815                 0.3895
 IR Inten    --      1.0004                17.0031                 6.0405

                     34                     35                     36
                      A                      A                      A
 Frequencies --    310.9764               328.8746               346.1706
 Red. masses --      3.5865                 1.2411                 1.9429
 Frc consts  --      0.2043                 0.0791                 0.1372
 IR Inten    --      6.9152                 2.3119                29.7459

                     37                     38                     39
                      A                      A                      A
 Frequencies --    355.0291               406.4648               419.5662
 Red. masses --      2.2696                 6.4909                 2.6657
 Frc consts  --      0.1685                 0.6318                 0.2765
 IR Inten    --      3.7741                 4.1632                 9.1688

                     40                     41                     42
                      A                      A                      A
 Frequencies --    430.1705               443.4977               464.7533
 Red. masses --      2.1729                 5.5390                 5.5502
 Frc consts  --      0.2369                 0.6419                 0.7063
 IR Inten    --      3.7663                 3.3172                 0.7985

                     43                     44                     45
                      A                      A                      A
 Frequencies --    505.3465               532.2463               533.1124
 Red. masses --      9.6471                 9.9943                 8.3187
 Frc consts  --      1.4515                 1.6681                 1.3930
 IR Inten    --     32.6159                 1.0678                17.1437

                     46                     47                     48
                      A                      A                      A
 Frequencies --    585.9990               604.7354               638.5880
 Red. masses --      9.8821                 8.8033                 6.4595
 Frc consts  --      1.9994                 1.8968                 1.5520
 IR Inten    --    125.6079                16.4959                 3.7023

                     49                     50                     51
                      A                      A                      A
 Frequencies --    645.0287               659.4487               682.0996
 Red. masses --      5.2235                 5.4911                 8.0316
 Frc consts  --      1.2805                 1.4069                 2.2016
 IR Inten    --      6.1627                 8.3149                 9.9730

                     52                     53                     54
                      A                      A                      A
 Frequencies --    690.8069               727.5852               738.0928
 Red. masses --      6.0245                 4.2345                 4.6819
 Frc consts  --      1.6939                 1.3208                 1.5028
 IR Inten    --     27.2135                13.5177                 2.2176

                     55                     56                     57
                      A                      A                      A
 Frequencies --    797.6757               805.6275               828.0088
 Red. masses --      8.6716                 5.6275                 9.3687
 Frc consts  --      3.2509                 2.1520                 3.7844
 IR Inten    --     23.2974                 9.5124                20.5043

                     58                     59                     60
                      A                      A                      A
 Frequencies --    903.6183               938.0757               950.7538
 Red. masses --      4.8242                 1.9983                 1.0714
 Frc consts  --      2.3208                 1.0360                 0.5706
 IR Inten    --      5.0039               105.0180                 4.9914

                     61                     62                     63
                      A                      A                      A
 Frequencies --    963.5025               970.5373               976.4090
 Red. masses --      1.0811                 1.0710                 1.0582
 Frc consts  --      0.5913                 0.5944                 0.5944
 IR Inten    --     16.9825                 9.3519                11.1357

                     64                     65                     66
                      A                      A                      A
 Frequencies --    980.5216               983.1344               997.3930
 Red. masses --      1.1117                 1.0675                 1.9588
 Frc consts  --      0.6297                 0.6079                 1.1481
 IR Inten    --     15.1522                10.5022                10.6277

                     67                     68                     69
                      A                      A                      A
 Frequencies --   1009.3159              1076.7601              1107.1477
 Red. masses --      1.1444                 8.0714                 7.7210
 Frc consts  --      0.6869                 5.5137                 5.5762
 IR Inten    --      8.1988                42.5297                 9.4079

                     70                     71                     72
                      A                      A                      A
 Frequencies --   1224.9563              1240.0621              1263.1200
 Red. masses --      8.0893                 4.3026                 4.5660
 Frc consts  --      7.1516                 3.8982                 4.2921
 IR Inten    --      8.6302                 3.8845                17.7849

                     73                     74                     75
                      A                      A                      A
 Frequencies --   1272.8911              1285.2653              1374.8639
 Red. masses --     12.3396                 5.1825                 8.5695
 Frc consts  --     11.7797                 5.0440                 9.5439
 IR Inten    --    252.1748                 1.5962                 0.5096

                     76                     77                     78
                      A                      A                      A
 Frequencies --   1454.7199              1475.3699              1491.5430
 Red. masses --      9.6102                17.1278                 9.2574
 Frc consts  --     11.9823                21.9662                12.1342
 IR Inten    --     23.4621               186.7124                38.7759

                     79                     80                     81
                      A                      A                      A
 Frequencies --   1527.4806              1658.2480              1716.1673
 Red. masses --     11.4877                11.0135                 9.8843
 Frc consts  --     15.7919                17.8432                17.1520
 IR Inten    --     91.1735                12.9545                 1.0921

                     82                     83                     84
                      A                      A                      A
 Frequencies --   1744.1225              4464.1777              4465.0684
 Red. masses --     10.8877                 1.0319                 1.0319
 Frc consts  --     19.5137                12.1162                12.1212
 IR Inten    --    367.7059                 8.9417                13.4639

                     85                     86                     87
                      A                      A                      A
 Frequencies --   4466.8664              4470.6726              4662.1741
 Red. masses --      1.0324                 1.0320                 1.1060
 Frc consts  --     12.1373                12.1527                14.1642
 IR Inten    --     28.7966                19.1992                 8.3528

                     88                     89                     90
                      A                      A                      A
 Frequencies --   4666.6569              4668.6956              4676.7509
 Red. masses --      1.1067                 1.1067                 1.1067
 Frc consts  --     14.2003                14.2128                14.2610
 IR Inten    --     16.0053                17.2624                 2.1956

                     91                     92                     93
                      A                      A                      A
 Frequencies --   4677.9534              4678.7036              4681.2261
 Red. masses --      1.1069                 1.1068                 1.1069
 Frc consts  --     14.2713                14.2751                14.2916
 IR Inten    --      4.4805                 5.8236                 2.9381

                     94                     95                     96
                      A                      A                      A
 Frequencies --   4684.5739              5027.5062              5028.8037
 Red. masses --      1.1068                 1.0877                 1.0876
 Frc consts  --     14.3108                16.1979                16.2052
 IR Inten    --      2.1396                 4.3475                 5.6713

                     97                     98                     99
                      A                      A                      A
 Frequencies --   5039.6708              5040.4613              6857.7600
 Red. masses --      1.0903                 1.0909                 1.0767
 Frc consts  --     16.3152                16.3303                29.8331
 IR Inten    --      0.9014                 4.9776                47.2068

 - Thermochemistry -
 -------------------
 Temperature   298.150 Kelvin.  Pressure   1.00000 Atm.
 Atom     1 has atomic number  6 and mass  12.00000

 Molecular mass:   269.09599 amu.
 Principal axes and moments of inertia in atomic units:
                           1         2         3
     Eigenvalues --  3086.301377719.753909490.00126
           X            0.99995  -0.00628  -0.00821
           Y            0.00619   0.99992  -0.01103
           Z            0.00828   0.01098   0.99991
 This molecule is an asymmetric top.
 Rotational symmetry number  1.
 Warning -- assumption of classical behavior for rotation
           may cause significant error
 Rotational temperatures (Kelvin)      0.02806     0.01122     0.00913
 Rotational constants (GHZ):           0.58476     0.23378     0.19017
   23 imaginary frequencies ignored.
 Zero-point vibrational energy     767447.7 (Joules/Mol)
                                  183.42441 (Kcal/Mol)
 Warning -- explicit consideration of  24 degrees of freedom as
           vibrations may cause significant error
 Vibrational temperatures:     41.91   123.05   183.09   252.07   275.52
          (Kelvin)            345.21   379.92   396.28   423.05   433.91
                              447.43   473.18   498.06   510.81   584.81
                              603.66   618.92   638.09   668.68   727.08
                              765.78   767.03   843.12   870.08   918.79
                              928.05   948.80   981.39   993.92  1046.83
                             1061.95  1147.68  1159.12  1191.32  1300.11
                             1349.68  1367.92  1386.27  1396.39  1404.83
                             1410.75  1414.51  1435.03  1452.18  1549.22
                             1592.94  1762.44  1784.17  1817.35  1831.41
                             1849.21  1978.12  2093.02  2122.73  2146.00
                             2197.70  2385.85  2469.18  2509.40  6422.96
                             6424.24  6426.82  6432.30  6707.83  6714.28
                             6717.21  6728.80  6730.53  6731.61  6735.24
                             6740.06  7233.46  7235.33  7250.96  7252.10
                             9866.79

 Zero-point correction=                           0.292305 (Hartree/Particle)
 Thermal correction to Energy=                    0.306405
 Thermal correction to Enthalpy=                  0.307349
 Thermal correction to Gibbs Free Energy=         0.251367
 Sum of electronic and zero-point Energies=          -1198.468268
 Sum of electronic and thermal Energies=             -1198.454168
 Sum of electronic and thermal Enthalpies=           -1198.453224
 Sum of electronic and thermal Free Energies=        -1198.509207

                     E (Thermal)             CV                S
                      KCal/Mol        Cal/Mol-Kelvin    Cal/Mol-Kelvin
 Total                  192.272             57.302            117.825
 Electronic               0.000              0.000              0.000
 Translational            0.889              2.981             42.669
 Rotational               0.889              2.981             33.780
 Vibrational            190.495             51.341             41.376
 Vibration     1          0.593              1.984              5.888
 Vibration     2          0.601              1.959              3.760
 Vibration     3          0.611              1.926              2.987
 Vibration     4          0.627              1.873              2.379
 Vibration     5          0.634              1.852              2.213
 Vibration     6          0.657              1.779              1.803
 Vibration     7          0.671              1.739              1.635
 Vibration     8          0.677              1.719              1.562
 Vibration     9          0.689              1.685              1.451
 Vibration    10          0.694              1.671              1.408
 Vibration    11          0.700              1.653              1.357
 Vibration    12          0.712              1.618              1.266
 Vibration    13          0.724              1.583              1.184
 Vibration    14          0.731              1.565              1.144
 Vibration    15          0.771              1.456              0.939
 Vibration    16          0.782              1.428              0.893
 Vibration    17          0.791              1.405              0.858
 Vibration    18          0.803              1.375              0.816
 Vibration    19          0.822              1.328              0.752
 Vibration    20          0.861              1.238              0.645
 Vibration    21          0.887              1.179              0.582
 Vibration    22          0.888              1.177              0.580
 Vibration    23          0.943              1.062              0.474
 Vibration    24          0.963              1.022              0.442

 Normal termination of Gaussian 16 at Mon Mar  6 11:12:59 2023.
