 Gaussian 16, Revision C.01,
 Gaussian 16:  ES64L-G16RevC.01  3-Jul-2019

 ----------------------------------------------------------------------
 #p pop=(regular,nbo,savenbos) freq=noraman def2svp empiricaldispersion
 =gd3bj output=wfx pbe1pbe
 ----------------------------------------------------------------------

 ----------------------------------------
 PAVPOU_Complex_0_Ligand_0_ON_Cu_oriented
 ----------------------------------------
 Symbolic Z-matrix:
 Charge = -1 Multiplicity = 1

                         Standard orientation:
 ---------------------------------------------------------------------
 Center     Atomic      Atomic             Coordinates (Angstroms)
 Number     Number       Type             X           Y           Z
 ---------------------------------------------------------------------
      1          8           0        1.446086   -1.955293    1.222071
      2          7           0       -1.129021   -1.704058    0.998939
      3          7           0        0.172705    1.985123   -1.064909
      4          6           0       -3.195115   -1.052175   -0.001285
      5          6           0       -2.526052   -0.800736   -1.198026
      6          1           0       -3.005208   -0.487490   -1.955814
      7          6           0       -1.160545   -1.010327   -1.277490
      8          1           0       -0.696459   -0.858925   -2.091901
      9          6           0       -0.478325   -1.447103   -0.144973
     10          6           0        1.243833   -3.018831   -0.936930
     11          1           0        0.715488   -3.748624   -0.551673
     12          1           0        0.960733   -2.864086   -1.862979
     13          1           0        2.193111   -3.259488   -0.922007
     14          6           0        1.026231   -1.737340   -0.113413
     15          6           0        1.856549   -0.595574   -0.742629
     16          1           0        1.476455   -0.394146   -1.634784
     17          1           0        2.779135   -0.926942   -0.883435
     18          6           0        1.937755    0.721302    0.051449
     19          6           0        2.972900    1.643667   -0.593687
     20          1           0        3.847690    1.202600   -0.596411
     21          1           0        2.703963    1.841336   -1.515384
     22          1           0        3.029365    2.478319   -0.083168
     23          6           0       -1.005207    2.630099   -1.065879
     24          1           0       -1.297780    3.023600   -1.880173
     25          6           0        0.581520    1.438187    0.090484
     26          6           0       -2.462487   -1.514246    1.073920
     27          1           0       -2.910531   -1.703276    1.889688
     28          6           0       -1.816655    2.756339    0.042162
     29          1           0       -2.645961    3.216950   -0.006756
     30          8           0        2.391857    0.459399    1.382356
     31          6           0       -1.382972    2.190240    1.228620
     32          6           0       -0.164325    1.521372    1.259782
     33          1           0        0.152635    1.128761    2.064668
     34          1           0       -4.130915   -0.908829    0.072062
     35          1           0       -1.912998    2.257704    2.014018
     36          1           0        2.169313   -0.347021    1.537801
 ---------------------------------------------------------------------

 SCF Done:  E(RPBE1PBE) =  -839.995639135     A.U. after   19 cycles

 The electronic state is 1-A.
 Alpha  occ. eigenvalues --  -19.01392 -18.89014 -14.26489 -14.23144 -10.14145
 Alpha  occ. eigenvalues --  -10.14021 -10.13928 -10.12168 -10.11886 -10.11436
 Alpha  occ. eigenvalues --  -10.11339 -10.10798 -10.10242 -10.09695 -10.09098
 Alpha  occ. eigenvalues --  -10.09036 -10.05469 -10.04910 -10.02740  -0.88649
 Alpha  occ. eigenvalues --   -0.84045  -0.81474  -0.72651  -0.71140  -0.68994
 Alpha  occ. eigenvalues --   -0.68314  -0.65017  -0.64846  -0.60079  -0.57530
 Alpha  occ. eigenvalues --   -0.54572  -0.54118  -0.52687  -0.51953  -0.47405
 Alpha  occ. eigenvalues --   -0.44280  -0.43399  -0.40411  -0.39661  -0.37676
 Alpha  occ. eigenvalues --   -0.37188  -0.36056  -0.34895  -0.33665  -0.32597
 Alpha  occ. eigenvalues --   -0.31435  -0.30989  -0.29984  -0.29303  -0.28658
 Alpha  occ. eigenvalues --   -0.28374  -0.27846  -0.27237  -0.26734  -0.26538
 Alpha  occ. eigenvalues --   -0.23844  -0.21408  -0.20342  -0.18972  -0.17884
 Alpha  occ. eigenvalues --   -0.16352  -0.15781  -0.14861  -0.13837  -0.12445
 Alpha  occ. eigenvalues --   -0.11911  -0.10188  -0.00027   0.00253
 Alpha virt. eigenvalues --    0.09097   0.10696   0.11826   0.13243   0.19297
 Alpha virt. eigenvalues --    0.21288   0.22135   0.22753   0.23943   0.25068
 Alpha virt. eigenvalues --    0.25569   0.26132   0.27003   0.27665   0.27708

 Mulliken charges:
               1
     1  O   -0.624739
     2  N   -0.128731
     3  N   -0.198292
     4  C   -0.000223
     5  C    0.114304
     6  H   -0.106150
     7  C    0.105846
     8  H   -0.108666
     9  C   -0.063943
    10  C    0.270725
    11  H   -0.050408
    12  H   -0.092286
    13  H   -0.056263
    14  C   -0.022331
    15  C    0.209582
    16  H   -0.071902
    17  H   -0.056268
    18  C   -0.034064
    19  C    0.252907
    20  H   -0.040043
    21  H   -0.036503
    22  H   -0.045891
    23  C    0.155419
    24  H   -0.088341
    25  C   -0.039693
    26  C    0.149498
    27  H   -0.090321
    28  C    0.017966
    29  H   -0.099691
    30  O   -0.255772
    31  C    0.124124
    32  C    0.151354
    33  H   -0.093658
    34  H   -0.109321
    35  H   -0.091903
    36  H    0.053680
 Sum of Mulliken charges =  -1.00000

 Dipole moment (field-independent basis, Debye):
    X=             -6.1333    Y=              5.4001    Z=             -4.0384  Tot=              9.1152
 Quadrupole moment (field-independent basis, Debye-Ang):
   XX=           -125.2199   YY=           -136.1073   ZZ=           -121.9969
   XY=              0.9861   XZ=             -8.5081   YZ=              8.7811

  Exact polarizability:     192.703     -18.639     142.546      -7.090      -6.652     145.915
 Approx polarizability:     292.944     -39.693     192.478      -5.940     -27.519     275.106

 Summary of Natural Population Analysis:

                                       Natural Population
                Natural  -----------------------------------------------
    Atom  No    Charge         Core      Valence    Rydberg      Total
 -----------------------------------------------------------------------
      O    1   -0.96411      1.99984     6.95695    0.00733     8.96411
      N    2   -0.45854      1.99926     5.44012    0.01916     7.45854
      N    3   -0.51911      1.99929     5.50251    0.01731     7.51911
      C    4   -0.26090      1.99911     4.24812    0.01367     6.26090
      C    5   -0.16367      1.99911     4.14961    0.01495     6.16367
      H    6    0.16491      0.00000     0.83189    0.00321     0.83509
      C    7   -0.22711      1.99896     4.21238    0.01577     6.22711
      H    8    0.18114      0.00000     0.81556    0.00330     0.81886
      C    9    0.23052      1.99888     3.73366    0.03694     5.76948
      C   10   -0.57787      1.99910     4.56422    0.01454     6.57787
      H   11    0.19061      0.00000     0.80334    0.00605     0.80939
      H   12    0.15849      0.00000     0.83625    0.00525     0.84151
      H   13    0.18475      0.00000     0.80952    0.00572     0.81525
      C   14    0.28812      1.99898     3.66823    0.04467     5.71188
      C   15   -0.43762      1.99890     4.41567    0.02304     6.43762
      H   16    0.18549      0.00000     0.80874    0.00576     0.81451
      H   17    0.19880      0.00000     0.79483    0.00637     0.80120
      C   18    0.30077      1.99892     3.66688    0.03343     5.69923
      C   19   -0.56941      1.99912     4.55731    0.01298     6.56941
      H   20    0.19038      0.00000     0.80605    0.00357     0.80962
      H   21    0.19516      0.00000     0.80111    0.00373     0.80484
      H   22    0.18779      0.00000     0.80821    0.00400     0.81221
      C   23    0.08693      1.99911     3.89214    0.02181     5.91307
      H   24    0.14664      0.00000     0.85039    0.00297     0.85336
      C   25    0.23336      1.99891     3.73458    0.03315     5.76664
      C   26    0.08113      1.99911     3.89792    0.02184     5.91887
      H   27    0.14390      0.00000     0.85267    0.00342     0.85610
      C   28   -0.24885      1.99911     4.23640    0.01334     6.24885
      H   29    0.17083      0.00000     0.82586    0.00331     0.82917
      O   30   -0.77575      1.99969     6.76050    0.01556     8.77575
      C   31   -0.14023      1.99911     4.12679    0.01433     6.14023
      C   32   -0.18680      1.99895     4.16939    0.01846     6.18680
      H   33    0.20545      0.00000     0.78765    0.00691     0.79455
      H   34    0.16466      0.00000     0.83156    0.00379     0.83534
      H   35    0.17041      0.00000     0.82661    0.00297     0.82959
      H   36    0.46974      0.00000     0.51397    0.01630     0.53026
 =======================================================================
   * Total *   -1.00000     37.98347    99.53760    0.47893   138.00000

 ******   26 imaginary frequencies (negative Signs) ******

                      1                      2                      3
                      A                      A                      A
 Frequencies --  -1612.3271             -1283.1365             -1267.3019
 Red. masses --      1.0782                 1.0784                 1.0770
 Frc consts  --      1.6514                 1.0461                 1.0191
 IR Inten    --     57.6377                56.1953                43.7265

                      4                      5                      6
                      A                      A                      A
 Frequencies --  -1234.7742             -1228.6073             -1162.1577
 Red. masses --      1.0094                 1.0096                 1.0372
 Frc consts  --      0.9068                 0.8979                 0.8253
 IR Inten    --      0.1315                 0.2079                 0.4656

                      7                      8                      9
                      A                      A                      A
 Frequencies --  -1141.0335             -1125.1867             -1091.2956
 Red. masses --      1.0363                 1.0185                 1.0175
 Frc consts  --      0.7949                 0.7597                 0.7140
 IR Inten    --      0.6087                 1.6103                 0.2728

                     10                     11                     12
                      A                      A                      A
 Frequencies --  -1011.4061              -987.6891              -940.9370
 Red. masses --      1.0312                 1.0288                 1.0421
 Frc consts  --      0.6215                 0.5913                 0.5436
 IR Inten    --      1.2637                 0.7987                12.3070

                     13                     14                     15
                      A                      A                      A
 Frequencies --   -919.3816              -861.0604              -835.7557
 Red. masses --      1.2114                 1.0642                 1.0504
 Frc consts  --      0.6033                 0.4649                 0.4323
 IR Inten    --    107.3200                 9.5212                 2.4758

                     16                     17                     18
                      A                      A                      A
 Frequencies --   -826.7222              -795.8832              -718.9079
 Red. masses --      1.0610                 1.0553                 1.1185
 Frc consts  --      0.4272                 0.3938                 0.3406
 IR Inten    --      2.0737                 3.9504                 0.1544

                     19                     20                     21
                      A                      A                      A
 Frequencies --   -704.1357              -635.9026              -630.0597
 Red. masses --      1.1150                 1.2102                 1.1986
 Frc consts  --      0.3257                 0.2883                 0.2803
 IR Inten    --      0.2296                 2.4490                 8.6156

                     22                     23                     24
                      A                      A                      A
 Frequencies --   -551.1368              -492.5042              -366.7912
 Red. masses --      1.2206                 1.2828                 1.1216
 Frc consts  --      0.2184                 0.1833                 0.0889
 IR Inten    --      3.2687                 5.9427                12.7434

                     25                     26                     27
                      A                      A                      A
 Frequencies --   -287.3668              -138.2823                87.7774
 Red. masses --      1.1979                 2.8214                 6.9883
 Frc consts  --      0.0583                 0.0318                 0.0317
 IR Inten    --      9.2632                 2.0928                 0.2814

                     28                     29                     30
                      A                      A                      A
 Frequencies --    125.6209               175.9428               202.2306
 Red. masses --      4.7288                10.1652                10.2624
 Frc consts  --      0.0440                 0.1854                 0.2473
 IR Inten    --      3.3009                 0.2237                 0.9641

                     31                     32                     33
                      A                      A                      A
 Frequencies --    258.5155               285.5971               316.9921
 Red. masses --      6.3938                 9.0854                 6.1227
 Frc consts  --      0.2518                 0.4366                 0.3625
 IR Inten    --     12.8427                 5.4035                 3.9492

                     34                     35                     36
                      A                      A                      A
 Frequencies --    362.8295               373.9860               388.8677
 Red. masses --      6.7112                 4.9768                 6.3400
 Frc consts  --      0.5205                 0.4101                 0.5649
 IR Inten    --      9.1855                 9.6144                 7.7221

                     37                     38                     39
                      A                      A                      A
 Frequencies --    405.9380               424.0553               465.4201
 Red. masses --      4.0436                 4.6888                 4.4093
 Frc consts  --      0.3926                 0.4968                 0.5627
 IR Inten    --      3.6207                 3.4495                 7.2993

                     40                     41                     42
                      A                      A                      A
 Frequencies --    513.2049               528.7675               534.2689
 Red. masses --      1.8508                 6.6637                 8.2317
 Frc consts  --      0.2872                 1.0977                 1.3844
 IR Inten    --      8.9836                 0.4849                 6.3411

                     43                     44                     45
                      A                      A                      A
 Frequencies --    546.2830               563.8328               603.0627
 Red. masses --      7.5774                 2.3709                 1.3672
 Frc consts  --      1.3323                 0.4441                 0.2930
 IR Inten    --      0.2257                10.9909                15.5430

                     46                     47                     48
                      A                      A                      A
 Frequencies --    626.2597               652.8463               673.5634
 Red. masses --      2.9348                 3.9265                 3.6880
 Frc consts  --      0.6782                 0.9860                 0.9858
 IR Inten    --      3.0867                 4.8062                 4.0588

                     49                     50                     51
                      A                      A                      A
 Frequencies --    675.3479               695.1746               709.6568
 Red. masses --      6.4425                 1.4344                 5.7055
 Frc consts  --      1.7312                 0.4084                 1.6929
 IR Inten    --      1.3132                11.1308                 4.7222

                     52                     53                     54
                      A                      A                      A
 Frequencies --    745.8752               758.7220               764.5816
 Red. masses --      4.1968                 3.9845                 4.2630
 Frc consts  --      1.3756                 1.3514                 1.4683
 IR Inten    --      7.3736                 1.9761                26.3358

                     55                     56                     57
                      A                      A                      A
 Frequencies --    789.8369               809.0303               833.7795
 Red. masses --      5.6962                 4.1058                 6.8375
 Frc consts  --      2.0937                 1.5834                 2.8006
 IR Inten    --      8.9127                15.1373                 4.7532

                     58                     59                     60
                      A                      A                      A
 Frequencies --    842.0292               845.3110               858.0906
 Red. masses --      7.6608                 4.5622                 6.6073
 Frc consts  --      3.2002                 1.9207                 2.8664
 IR Inten    --      1.4765                 2.9848                 2.2277

                     61                     62                     63
                      A                      A                      A
 Frequencies --   1000.2037              1027.5959              1038.1145
 Red. masses --      2.7196                 6.8837                 6.6470
 Frc consts  --      1.6030                 4.2827                 4.2205
 IR Inten    --     56.2430                 2.1798                 4.9124

                     64                     65                     66
                      A                      A                      A
 Frequencies --   1045.1254              1057.2671              1061.1537
 Red. masses --      1.5836                 1.4296                 1.5044
 Frc consts  --      1.0192                 0.9415                 0.9981
 IR Inten    --     22.5674                22.1119                 8.5771

                     67                     68                     69
                      A                      A                      A
 Frequencies --   1071.4083              1103.3854              1111.8571
 Red. masses --      1.4251                 1.6554                 1.7276
 Frc consts  --      0.9638                 1.1875                 1.2583
 IR Inten    --     33.3998                20.9464                11.2582

                     70                     71                     72
                      A                      A                      A
 Frequencies --   1134.0882              1179.2014              1209.9634
 Red. masses --      1.9341                 3.5875                 3.4393
 Frc consts  --      1.4656                 2.9391                 2.9666
 IR Inten    --      5.9332                11.4828                24.9602

                     73                     74                     75
                      A                      A                      A
 Frequencies --   1240.7586              1257.8036              1273.6535
 Red. masses --      5.3804                 5.4517                 4.9182
 Frc consts  --      4.8803                 5.0817                 4.7006
 IR Inten    --      1.8405                11.6908                19.0863

                     76                     77                     78
                      A                      A                      A
 Frequencies --   1327.5183              1335.9349              1369.6723
 Red. masses --      9.0326                 8.9167                 8.6757
 Frc consts  --      9.3788                 9.3762                 9.5893
 IR Inten    --      3.9594                 1.0267                 1.1952

                     79                     80                     81
                      A                      A                      A
 Frequencies --   1394.4440              1403.9327              1425.2659
 Red. masses --      8.5736                 8.9785                 9.1399
 Frc consts  --      9.8224                10.4266                10.9392
 IR Inten    --      4.2309                15.4714                16.3317

                     82                     83                     84
                      A                      A                      A
 Frequencies --   1612.7624              1622.9821              1628.5407
 Red. masses --     10.8379                10.8725                10.5740
 Frc consts  --     16.6088                16.8737                16.5230
 IR Inten    --     38.4243                51.5411                10.6469

                     85                     86                     87
                      A                      A                      A
 Frequencies --   1657.2258              4177.4572              4226.7557
 Red. masses --     10.6886                 1.0601                 1.0316
 Frc consts  --     17.2956                10.9002                10.8587
 IR Inten    --     14.5869                21.0593                34.4022

                     88                     89                     90
                      A                      A                      A
 Frequencies --   4237.0479              4285.8756              4410.1238
 Red. masses --      1.0322                 1.1063                 1.1048
 Frc consts  --     10.9178                11.9726                12.6602
 IR Inten    --     16.8444                14.2906                20.3058

                     91                     92                     93
                      A                      A                      A
 Frequencies --   4427.2943              4430.3751              4433.1056
 Red. masses --      1.1064                 1.1065                 1.1072
 Frc consts  --     12.7775                12.7961                12.8197
 IR Inten    --      8.5379                 6.7929                 9.9892

                     94                     95                     96
                      A                      A                      A
 Frequencies --   4753.9905              4758.9877              4765.1757
 Red. masses --      1.0877                 1.0864                 1.0886
 Frc consts  --     14.4834                14.4964                14.5637
 IR Inten    --      5.1066                 0.2995                 6.9432

                     97                     98                     99
                      A                      A                      A
 Frequencies --   4766.5712              4774.1041              4775.7998
 Red. masses --      1.0882                 1.0905                 1.0916
 Frc consts  --     14.5668                14.6441                14.6693
 IR Inten    --      8.5139                13.0776                 3.8674

                    100                    101                    102
                      A                      A                      A
 Frequencies --   4779.2763              4786.4918              5544.4536
 Red. masses --      1.0927                 1.0912                 1.0684
 Frc consts  --     14.7056                14.7289                19.3507
 IR Inten    --      8.3030                 5.4109               532.9055

 - Thermochemistry -
 -------------------
 Temperature   298.150 Kelvin.  Pressure   1.00000 Atm.
 Atom     1 has atomic number  8 and mass  15.99491

 Molecular mass:   257.12900 amu.
 Principal axes and moments of inertia in atomic units:
                           1         2         3
     Eigenvalues --  3710.169023863.989185830.16043
           X            0.99298  -0.11657  -0.02018
           Y            0.11688   0.99303   0.01508
           Z            0.01828  -0.01733   0.99968
 This molecule is an asymmetric top.
 Rotational symmetry number  1.
 Warning -- assumption of classical behavior for rotation
           may cause significant error
 Rotational temperatures (Kelvin)      0.02335     0.02242     0.01486
 Rotational constants (GHZ):           0.48643     0.46707     0.30955
   26 imaginary frequencies ignored.
 Zero-point vibrational energy     767799.4 (Joules/Mol)
                                  183.50847 (Kcal/Mol)
 Warning -- explicit consideration of  19 degrees of freedom as
           vibrations may cause significant error
 Vibrational temperatures:    126.29   180.74   253.14   290.96   371.95
          (Kelvin)            410.91   456.08   522.03   538.08   559.49
                              584.05   610.12   669.64   738.39   760.78
                              768.69   785.98   811.23   867.67   901.05
                              939.30   969.11   971.67  1000.20  1021.04
                             1073.15  1091.63  1100.06  1136.40  1164.01
                             1199.62  1211.49  1216.21  1234.60  1439.07
                             1478.48  1493.62  1503.70  1521.17  1526.76
                             1541.52  1587.53  1599.71  1631.70  1696.61
                             1740.87  1785.17  1809.70  1832.50  1910.00
                             1922.11  1970.65  2006.29  2019.95  2050.64
                             2320.41  2335.11  2343.11  2384.38  6010.43
                             6081.36  6096.17  6166.42  6345.18  6369.89
                             6374.32  6378.25  6839.93  6847.12  6856.02
                             6858.03  6868.87  6871.31  6876.31  6886.69
                             7977.23

 Zero-point correction=                           0.292439 (Hartree/Particle)
 Thermal correction to Energy=                    0.304053
 Thermal correction to Enthalpy=                  0.304997
 Thermal correction to Gibbs Free Energy=         0.255088
 Sum of electronic and zero-point Energies=           -839.703200
 Sum of electronic and thermal Energies=              -839.691586
 Sum of electronic and thermal Enthalpies=            -839.690642
 Sum of electronic and thermal Free Energies=         -839.740551

                     E (Thermal)             CV                S
                      KCal/Mol        Cal/Mol-Kelvin    Cal/Mol-Kelvin
 Total                  190.796             50.326            105.043
 Electronic               0.000              0.000              0.000
 Translational            0.889              2.981             42.533
 Rotational               0.889              2.981             32.791
 Vibrational            189.019             44.364             29.719
 Vibration     1          0.601              1.958              3.709
 Vibration     2          0.611              1.927              3.012
 Vibration     3          0.628              1.872              2.371
 Vibration     4          0.639              1.837              2.113
 Vibration     5          0.667              1.748              1.672
 Vibration     6          0.683              1.700              1.500
 Vibration     7          0.704              1.641              1.326
 Vibration     8          0.737              1.549              1.110
 Vibration     9          0.745              1.525              1.063
 Vibration    10          0.757              1.494              1.004
 Vibration    11          0.771              1.457              0.941
 Vibration    12          0.786              1.418              0.878
 Vibration    13          0.823              1.327              0.750
 Vibration    14          0.868              1.221              0.626
 Vibration    15          0.884              1.186              0.590
 Vibration    16          0.889              1.174              0.578
 Vibration    17          0.901              1.148              0.552
 Vibration    18          0.920              1.110              0.516
 Vibration    19          0.961              1.025              0.444

 Normal termination of Gaussian 16 at Mon Mar  6 11:38:17 2023.
