 Gaussian 16, Revision C.01,
 Gaussian 16:  ES64L-G16RevC.01  3-Jul-2019

 ----------------------------------------------------------------------
 #p pop=(regular,nbo,savenbos) freq=noraman def2svp empiricaldispersion
 =gd3bj output=wfx pbe1pbe
 ----------------------------------------------------------------------

 ----------------------------------------
 PEYSUI_Complex_0_Ligand_1_ON_Cu_oriented
 ----------------------------------------
 Symbolic Z-matrix:
 Charge = -1 Multiplicity = 1

                         Standard orientation:
 ---------------------------------------------------------------------
 Center     Atomic      Atomic             Coordinates (Angstroms)
 Number     Number       Type             X           Y           Z
 ---------------------------------------------------------------------
      1         35           0       -3.464847   -1.585779    0.004376
      2          8           0       -0.372236    3.557074    0.085699
      3          7           0        1.895605    1.902484    0.619334
      4          1           0        2.639835    1.958206    1.143660
      5          6           0       -1.011756    2.404287    0.085336
      6          6           0       -2.237048    2.310003   -0.562946
      7          1           0       -2.580226    3.060754   -0.991911
      8          6           0       -2.953295    1.145023   -0.585228
      9          1           0       -3.784569    1.113155   -1.001241
     10          6           0       -2.429947    0.011449    0.016056
     11          6           0       -1.231644    0.065748    0.639747
     12          1           0       -0.898562   -0.698774    1.052208
     13          6           0       -0.482746    1.239418    0.680452
     14          6           0        0.805219    1.308405    1.426691
     15          1           0        0.680170    1.838606    2.229871
     16          1           0        1.063371    0.413005    1.699355
     17          6           0        2.272186    1.126675   -0.589317
     18          1           0        1.508400    1.131490   -1.202703
     19          6           0        2.622864   -0.328249   -0.286877
     20          6           0        3.534602   -0.645409    0.698848
     21          1           0        3.904651    0.028567    1.222029
     22          6           0        3.893385   -1.947680    0.907053
     23          1           0        4.493457   -2.150973    1.587599
     24          6           0        3.395110   -2.946195    0.142451
     25          6           0        2.529781   -2.632566   -0.857786
     26          1           0        2.212161   -3.304252   -1.415820
     27          6           0        2.118044   -1.332119   -1.056312
     28          1           0        1.493921   -1.139697   -1.717610
     29          6           0        3.435947    1.800855   -1.287139
     30          1           0        3.192323    2.701595   -1.516062
     31          1           0        3.654470    1.314984   -2.085680
     32          1           0        4.196080    1.814130   -0.702600
     33          1           0        3.638598   -3.830384    0.298654
 ---------------------------------------------------------------------

 SCF Done:  E(RPBE1PBE) =  -3282.57210834     A.U. after   17 cycles

 The electronic state is 1-A.
 Alpha  occ. eigenvalues -- -483.05025 -62.48386 -56.27348 -56.27048 -56.27039
 Alpha  occ. eigenvalues --  -18.93591 -14.22542 -10.12828 -10.12794 -10.12155
 Alpha  occ. eigenvalues --  -10.12082 -10.11870 -10.11779 -10.11347 -10.10607
 Alpha  occ. eigenvalues --  -10.08784 -10.08600 -10.07802 -10.06488 -10.06380
 Alpha  occ. eigenvalues --  -10.05740 -10.03457  -8.62986  -6.44360  -6.43249
 Alpha  occ. eigenvalues --   -6.43214  -2.52937  -2.52615  -2.52587  -2.51694
 Alpha  occ. eigenvalues --   -2.51694  -0.81282  -0.78964  -0.77287  -0.72554
 Alpha  occ. eigenvalues --   -0.70205  -0.68744  -0.66694  -0.65661  -0.63036
 Alpha  occ. eigenvalues --   -0.57859  -0.56455  -0.55093  -0.53654  -0.51158
 Alpha  occ. eigenvalues --   -0.47785  -0.46855  -0.43786  -0.41077  -0.38961
 Alpha  occ. eigenvalues --   -0.37809  -0.36201  -0.35998  -0.35727  -0.35351
 Alpha  occ. eigenvalues --   -0.34101  -0.32342  -0.31771  -0.30028  -0.29080
 Alpha  occ. eigenvalues --   -0.28898  -0.27930  -0.26396  -0.25517  -0.25188
 Alpha  occ. eigenvalues --   -0.24114  -0.23423  -0.21297  -0.18648  -0.17699
 Alpha  occ. eigenvalues --   -0.17537  -0.16750  -0.16177  -0.13214  -0.10876
 Alpha  occ. eigenvalues --   -0.10009  -0.02884  -0.01523
 Alpha virt. eigenvalues --    0.09144   0.10123   0.15701   0.16917   0.18040
 Alpha virt. eigenvalues --    0.19319   0.19617   0.21030   0.22773   0.23474
 Alpha virt. eigenvalues --    0.24462   0.25699   0.26172   0.26375   0.27458

 Mulliken charges:
               1
     1  Br  -0.176904
     2  O   -0.480468
     3  N   -0.230454
     4  H    0.040838
     5  C    0.191745
     6  C    0.007531
     7  H   -0.163418
     8  C    0.112922
     9  H   -0.153279
    10  C   -0.061214
    11  C    0.091626
    12  H   -0.167880
    13  C   -0.300710
    14  C    0.415493
    15  H   -0.049523
    16  H   -0.089702
    17  C    0.106848
    18  H   -0.025085
    19  C   -0.082224
    20  C    0.093161
    21  H   -0.139986
    22  C    0.097519
    23  H   -0.119471
    24  C    0.092992
    25  C    0.101361
    26  H   -0.113470
    27  C    0.100355
    28  H   -0.115621
    29  C    0.252256
    30  H   -0.008467
    31  H   -0.045691
    32  H   -0.061868
    33  H   -0.119212
 Sum of Mulliken charges =  -1.00000

 Dipole moment (field-independent basis, Debye):
    X=              5.2107    Y=             -7.9678    Z=             -0.1067  Tot=              9.5210
 Quadrupole moment (field-independent basis, Debye-Ang):
   XX=           -140.9216   YY=           -158.8091   ZZ=           -117.9206
   XY=              0.4008   XZ=              4.1988   YZ=             -0.5717

  Exact polarizability:     183.048      10.707     201.901      24.391      -5.737     121.928
 Approx polarizability:     253.799      33.916     331.816      51.510      -6.500     200.217

 Summary of Natural Population Analysis:

                                       Natural Population
                Natural  -----------------------------------------------
    Atom  No    Charge         Core      Valence    Rydberg      Total
 -----------------------------------------------------------------------
     Br    1   -0.05586     27.99921     7.03720    0.01945    35.05586
      O    2   -0.77435      1.99981     6.76702    0.00752     8.77435
      N    3   -0.64700      1.99939     5.62909    0.01852     7.64700
      H    4    0.31198      0.00000     0.68109    0.00693     0.68802
      C    5    0.36855      1.99876     3.59210    0.04058     5.63145
      C    6   -0.25944      1.99896     4.24028    0.02020     6.25944
      H    7    0.16650      0.00000     0.82769    0.00581     0.83350
      C    8   -0.20778      1.99894     4.19189    0.01695     6.20778
      H    9    0.16439      0.00000     0.83183    0.00379     0.83561
      C   10   -0.18138      1.99866     4.16149    0.02123     6.18138
      C   11   -0.21808      1.99880     4.20133    0.01795     6.21808
      H   12    0.17250      0.00000     0.82333    0.00417     0.82750
      C   13   -0.14856      1.99892     4.12966    0.01998     6.14856
      C   14   -0.16014      1.99897     4.14055    0.02061     6.16014
      H   15    0.18497      0.00000     0.80970    0.00533     0.81503
      H   16    0.15204      0.00000     0.84315    0.00481     0.84796
      C   17    0.00718      1.99898     3.97229    0.02155     5.99282
      H   18    0.19480      0.00000     0.80010    0.00509     0.80520
      C   19   -0.02395      1.99896     4.00537    0.01961     6.02395
      C   20   -0.19007      1.99897     4.17418    0.01692     6.19007
      H   21    0.16469      0.00000     0.82995    0.00536     0.83531
      C   22   -0.16894      1.99909     4.15510    0.01475     6.16894
      H   23    0.16117      0.00000     0.83546    0.00337     0.83883
      C   24   -0.19907      1.99910     4.18541    0.01456     6.19907
      C   25   -0.15836      1.99910     4.14459    0.01466     6.15836
      H   26    0.16240      0.00000     0.83437    0.00323     0.83760
      C   27   -0.17206      1.99894     4.15751    0.01561     6.17206
      H   28    0.17651      0.00000     0.82019    0.00330     0.82349
      C   29   -0.53772      1.99914     4.52889    0.00970     6.53772
      H   30    0.19874      0.00000     0.79720    0.00406     0.80126
      H   31    0.18174      0.00000     0.81567    0.00259     0.81826
      H   32    0.17108      0.00000     0.82589    0.00303     0.82892
      H   33    0.16351      0.00000     0.83322    0.00327     0.83649
 =======================================================================
   * Total *   -1.00000     61.98271    93.62279    0.39450   156.00000

 ******   26 imaginary frequencies (negative Signs) ******

                      1                      2                      3
                      A                      A                      A
 Frequencies --  -1468.3158             -1438.1148             -1385.9585
 Red. masses --      1.0829                 1.0678                 1.0093
 Frc consts  --      1.3756                 1.3012                 1.1423
 IR Inten    --     73.5198                30.6494                 0.1743

                      4                      5                      6
                      A                      A                      A
 Frequencies --  -1370.8926             -1340.6137             -1316.6567
 Red. masses --      1.0453                 1.0459                 1.0367
 Frc consts  --      1.1575                 1.1076                 1.0589
 IR Inten    --      0.7030                11.8955                 1.1714

                      7                      8                      9
                      A                      A                      A
 Frequencies --  -1255.8486             -1254.7370             -1243.3286
 Red. masses --      1.0665                 1.0443                 1.0366
 Frc consts  --      0.9911                 0.9687                 0.9442
 IR Inten    --     86.8571                16.5648                33.1327

                     10                     11                     12
                      A                      A                      A
 Frequencies --  -1166.7561             -1075.3298             -1016.4710
 Red. masses --      1.0384                 1.0274                 1.0472
 Frc consts  --      0.8329                 0.7000                 0.6375
 IR Inten    --      0.7863                 2.6869                 8.7227

                     13                     14                     15
                      A                      A                      A
 Frequencies --  -1008.0692              -962.3398              -927.6670
 Red. masses --      1.0480                 1.0835                 1.0638
 Frc consts  --      0.6274                 0.5912                 0.5394
 IR Inten    --      4.0784                 8.9210                 0.5814

                     16                     17                     18
                      A                      A                      A
 Frequencies --   -899.1807              -870.5130              -836.5844
 Red. masses --      1.1469                 1.0725                 1.1065
 Frc consts  --      0.5463                 0.4789                 0.4562
 IR Inten    --      1.6065                 3.1543                10.0906

                     19                     20                     21
                      A                      A                      A
 Frequencies --   -815.0295              -735.9469              -699.0939
 Red. masses --      1.0666                 1.1241                 1.0444
 Frc consts  --      0.4174                 0.3587                 0.3007
 IR Inten    --      5.0026                 5.3505                14.1365

                     22                     23                     24
                      A                      A                      A
 Frequencies --   -444.2433              -344.5957              -274.6797
 Red. masses --      1.5509                 1.7428                 2.1365
 Frc consts  --      0.1803                 0.1219                 0.0950
 IR Inten    --      5.2131                 1.8023                 1.9782

                     25                     26                     27
                      A                      A                      A
 Frequencies --   -244.4965               -71.7263                77.9281
 Red. masses --      1.9273                 4.3391                 9.4583
 Frc consts  --      0.0679                 0.0132                 0.0338
 IR Inten    --      7.2197                 4.7380                 1.1479

                     28                     29                     30
                      A                      A                      A
 Frequencies --    102.9456               145.0888               166.7983
 Red. masses --     11.1736                 7.7276                 6.2518
 Frc consts  --      0.0698                 0.0958                 0.1025
 IR Inten    --      3.7169                 0.9710                 3.1878

                     31                     32                     33
                      A                      A                      A
 Frequencies --    237.1980               249.5151               290.2951
 Red. masses --      7.4073                 8.1060                 7.4477
 Frc consts  --      0.2455                 0.2973                 0.3698
 IR Inten    --      1.7996                 5.3838                 4.2884

                     34                     35                     36
                      A                      A                      A
 Frequencies --    316.0908               361.0676               388.4386
 Red. masses --     15.0275                 1.1674                 5.2816
 Frc consts  --      0.8846                 0.0897                 0.4695
 IR Inten    --      0.6941                16.9432                 2.5044

                     37                     38                     39
                      A                      A                      A
 Frequencies --    407.9071               462.1198               486.9924
 Red. masses --      6.3677                 5.5913                 2.6153
 Frc consts  --      0.6242                 0.7035                 0.3654
 IR Inten    --      0.1886                13.8950                 0.1462

                     40                     41                     42
                      A                      A                      A
 Frequencies --    495.3789               516.1075               552.7651
 Red. masses --      3.1867                10.3777                 4.3920
 Frc consts  --      0.4607                 1.6287                 0.7907
 IR Inten    --      2.0884                 0.0456                 0.8905

                     43                     44                     45
                      A                      A                      A
 Frequencies --    608.5596               618.4420               656.5854
 Red. masses --     10.5100                 6.2964                 7.0143
 Frc consts  --      2.2933                 1.4189                 1.7816
 IR Inten    --      0.9546                 0.4423                26.5033

                     46                     47                     48
                      A                      A                      A
 Frequencies --    666.3125               712.1997               735.4128
 Red. masses --      6.0910                 2.9256                 5.1162
 Frc consts  --      1.5933                 0.8743                 1.6303
 IR Inten    --      6.7317                 2.2013                49.2936

                     49                     50                     51
                      A                      A                      A
 Frequencies --    748.1330               768.6400               777.6791
 Red. masses --      3.2967                 3.5302                 2.2671
 Frc consts  --      1.0872                 1.2288                 0.8078
 IR Inten    --      4.3364                20.4196                 4.0952

                     52                     53                     54
                      A                      A                      A
 Frequencies --    812.3344               828.3891               840.5324
 Red. masses --      5.9559                 2.8258                 4.2672
 Frc consts  --      2.3156                 1.1425                 1.7762
 IR Inten    --      3.4146                30.7108                 7.0075

                     55                     56                     57
                      A                      A                      A
 Frequencies --    851.3371               901.4767               917.4643
 Red. masses --      3.1743                 2.3300                 3.9246
 Frc consts  --      1.3555                 1.1156                 1.9464
 IR Inten    --      3.9279                18.8892                 8.2023

                     58                     59                     60
                      A                      A                      A
 Frequencies --    955.0298               976.1640               997.8849
 Red. masses --      1.9444                 1.4369                 1.3980
 Frc consts  --      1.0449                 0.8067                 0.8202
 IR Inten    --      9.2347                 8.3576                14.4254

                     61                     62                     63
                      A                      A                      A
 Frequencies --   1039.3082              1075.1336              1087.9763
 Red. masses --      2.1141                 3.8161                 3.5009
 Frc consts  --      1.3455                 2.5990                 2.4415
 IR Inten    --      3.1325                 0.1966                 7.5192

                     64                     65                     66
                      A                      A                      A
 Frequencies --   1163.3094              1180.0504              1242.4481
 Red. masses --      3.2592                 5.1089                 7.0438
 Frc consts  --      2.5987                 4.1916                 6.4064
 IR Inten    --     28.2596                14.3562                 1.8539

                     67                     68                     69
                      A                      A                      A
 Frequencies --   1254.6183              1306.0777              1430.8820
 Red. masses --      7.7567                 9.2775                 8.0851
 Frc consts  --      7.1937                 9.3244                 9.7531
 IR Inten    --     17.3256                71.0491                 0.1582

                     70                     71                     72
                      A                      A                      A
 Frequencies --   1461.6550              1479.2812              1482.9853
 Red. masses --     10.1243                 9.6588                 8.8022
 Frc consts  --     12.7440                12.4531                11.4055
 IR Inten    --    226.1481                15.2445                 1.2645

                     73                     74                     75
                      A                      A                      A
 Frequencies --   1540.3719              1555.8640              1645.5821
 Red. masses --      9.7820                 8.9320                10.4584
 Frc consts  --     13.6750                12.7391                16.6861
 IR Inten    --     34.1810                 1.5101                95.1666

                     76                     77                     78
                      A                      A                      A
 Frequencies --   1724.4730              1732.2720              1780.8493
 Red. masses --     10.4085                10.7458                10.0721
 Frc consts  --     18.2370                18.9985                18.8203
 IR Inten    --      8.0382                25.4775                 1.5430

                     79                     80                     81
                      A                      A                      A
 Frequencies --   4375.9491              4397.8473              4468.7374
 Red. masses --      1.0879                 1.0600                 1.0322
 Frc consts  --     12.2741                12.0795                12.1445
 IR Inten    --      4.3750                33.3715                12.6369

                     82                     83                     84
                      A                      A                      A
 Frequencies --   4517.3563              4672.1859              4681.6888
 Red. masses --      1.1077                 1.1067                 1.1066
 Frc consts  --     13.3185                14.2337                14.2903
 IR Inten    --     11.1362                 2.9462                 6.5036

                     85                     86                     87
                      A                      A                      A
 Frequencies --   4973.1598              5015.3360              5016.4983
 Red. masses --      1.0751                 1.0861                 1.0888
 Frc consts  --     15.6660                16.0966                16.1442
 IR Inten    --      3.6533                 0.3407                 2.6670

                     88                     89                     90
                      A                      A                      A
 Frequencies --   5019.4942              5024.3847              5032.4572
 Red. masses --      1.0873                 1.0885                 1.0910
 Frc consts  --     16.1403                16.1906                16.2789
 IR Inten    --      1.3096                 1.4232                 3.7276

                     91                     92                     93
                      A                      A                      A
 Frequencies --   5033.2588              5036.5196              5046.0762
 Red. masses --      1.0897                 1.0907                 1.0922
 Frc consts  --     16.2653                16.3012                16.3852
 IR Inten    --      4.3407                 3.2589                 2.4169

 - Thermochemistry -
 -------------------
 Temperature   298.150 Kelvin.  Pressure   1.00000 Atm.
 Atom     1 has atomic number 35 and mass  78.91834

 Molecular mass:   304.03370 amu.
 Principal axes and moments of inertia in atomic units:
                           1         2         3
     Eigenvalues --  4128.781578671.74511**********
           X            0.99889  -0.04712   0.00095
           Y            0.04713   0.99887  -0.00600
           Z           -0.00066   0.00603   0.99998
 This molecule is an asymmetric top.
 Rotational symmetry number  1.
 Warning -- assumption of classical behavior for rotation
           may cause significant error
 Rotational temperatures (Kelvin)      0.02098     0.00999     0.00735
 Rotational constants (GHZ):           0.43711     0.20812     0.15310
   26 imaginary frequencies ignored.
 Zero-point vibrational energy     700552.9 (Joules/Mol)
                                  167.43617 (Kcal/Mol)
 Warning -- explicit consideration of  18 degrees of freedom as
           vibrations may cause significant error
 Vibrational temperatures:    112.12   148.12   208.75   239.99   341.28
          (Kelvin)            359.00   417.67   454.78   519.50   558.88
                              586.89   664.89   700.67   712.74   742.56
                              795.31   875.58   889.80   944.68   958.68
                             1024.70  1058.10  1076.40  1105.90  1118.91
                             1168.77  1191.87  1209.34  1224.88  1297.02
                             1320.03  1374.07  1404.48  1435.73  1495.33
                             1546.88  1565.36  1673.74  1697.83  1787.61
                             1805.12  1879.15  2058.72  2103.00  2128.36
                             2133.69  2216.25  2238.54  2367.63  2481.13
                             2492.35  2562.24  6296.01  6327.52  6429.52
                             6499.47  6722.23  6735.91  7155.27  7215.95
                             7217.62  7221.93  7228.97  7240.58  7241.74
                             7246.43  7260.18

 Zero-point correction=                           0.266827 (Hartree/Particle)
 Thermal correction to Energy=                    0.278086
 Thermal correction to Enthalpy=                  0.279031
 Thermal correction to Gibbs Free Energy=         0.228041
 Sum of electronic and zero-point Energies=          -3282.305282
 Sum of electronic and thermal Energies=             -3282.294022
 Sum of electronic and thermal Enthalpies=           -3282.293078
 Sum of electronic and thermal Free Energies=        -3282.344067

                     E (Thermal)             CV                S
                      KCal/Mol        Cal/Mol-Kelvin    Cal/Mol-Kelvin
 Total                  174.502             45.841            107.316
 Electronic               0.000              0.000              0.000
 Translational            0.889              2.981             43.033
 Rotational               0.889              2.981             34.400
 Vibrational            172.724             39.880             29.884
 Vibration     1          0.599              1.964              3.942
 Vibration     2          0.605              1.947              3.398
 Vibration     3          0.616              1.908              2.736
 Vibration     4          0.624              1.883              2.471
 Vibration     5          0.656              1.784              1.824
 Vibration     6          0.662              1.764              1.734
 Vibration     7          0.686              1.692              1.472
 Vibration     8          0.703              1.643              1.330
 Vibration     9          0.735              1.552              1.118
 Vibration    10          0.757              1.495              1.006
 Vibration    11          0.772              1.453              0.934
 Vibration    12          0.820              1.334              0.760
 Vibration    13          0.843              1.279              0.691
 Vibration    14          0.851              1.260              0.670
 Vibration    15          0.871              1.214              0.619
 Vibration    16          0.908              1.134              0.538
 Vibration    17          0.967              1.014              0.435
 Vibration    18          0.978              0.993              0.419

 Normal termination of Gaussian 16 at Mon Mar  6 11:20:54 2023.
