 Gaussian 16, Revision C.01,
 Gaussian 16:  ES64L-G16RevC.01  3-Jul-2019

 ----------------------------------------------------------------------
 #p pop=(regular,nbo,savenbos) freq=noraman def2svp empiricaldispersion
 =gd3bj output=wfx pbe1pbe
 ----------------------------------------------------------------------

 ----------------------------------------
 PEYSOC_Complex_0_Ligand_0_ON_Cu_oriented
 ----------------------------------------
 Symbolic Z-matrix:
 Charge = -1 Multiplicity = 1

                         Standard orientation:
 ---------------------------------------------------------------------
 Center     Atomic      Atomic             Coordinates (Angstroms)
 Number     Number       Type             X           Y           Z
 ---------------------------------------------------------------------
      1          8           0       -1.724265   -2.958528   -0.424935
      2          7           0        0.878231   -1.770868   -0.591928
      3          1           0        1.566493   -1.994469   -1.019137
      4          6           0       -2.084589   -1.686546   -0.303833
      5          6           0       -2.915698    0.951686    0.031560
      6          6           0       -1.717108    0.692355   -0.585943
      7          1           0       -1.192821    1.397551   -0.889809
      8          6           0       -1.280898   -0.614201   -0.761026
      9          6           0        0.026239   -0.907668   -1.445399
     10          1           0       -0.142470   -1.353366   -2.291132
     11          1           0        0.489970   -0.075429   -1.630805
     12          6           0        1.335068   -1.088741    0.656419
     13          1           0        0.558541   -0.637255    1.049029
     14          6           0        1.826775   -2.123023    1.661549
     15          1           0        1.090254   -2.670540    1.943334
     16          1           0        2.204119   -1.675745    2.422910
     17          1           0        2.497141   -2.673853    1.251052
     18          6           0        2.374521   -0.027994    0.341918
     19          6           0        2.029196    1.306605    0.272948
     20          1           0        1.152986    1.562960    0.447968
     21          6           0        2.971844    2.269153   -0.055374
     22          1           0        2.724085    3.163907   -0.102284
     23          6           0        4.625465    0.605230   -0.251924
     24          6           0        3.687134   -0.370449    0.065320
     25          1           0        3.943788   -1.264047    0.092486
     26         17           0       -3.396570    2.615541    0.315450
     27          6           0        4.249649    1.909895   -0.305772
     28          1           0        4.877297    2.562291   -0.517989
     29          6           0       -3.310778   -1.374606    0.295754
     30          1           0       -3.857293   -2.063800    0.595513
     31          6           0       -3.729602   -0.068443    0.452991
     32          1           0       -4.554160    0.117424    0.840558
     33          1           0        5.506961    0.364955   -0.426487
 ---------------------------------------------------------------------

 SCF Done:  E(RPBE1PBE) =  -1168.90537243     A.U. after   17 cycles

 The electronic state is 1-A.
 Alpha  occ. eigenvalues -- -101.53163 -18.93535 -14.21919 -10.13271 -10.12726
 Alpha  occ. eigenvalues --  -10.12692 -10.12304 -10.12272 -10.12044 -10.11726
 Alpha  occ. eigenvalues --  -10.10898 -10.08991 -10.08778 -10.07141 -10.06630
 Alpha  occ. eigenvalues --  -10.06279 -10.06053 -10.03544  -9.38341  -7.12422
 Alpha  occ. eigenvalues --   -7.11533  -7.11507  -0.81698  -0.78984  -0.76962
 Alpha  occ. eigenvalues --   -0.74823  -0.70257  -0.68650  -0.67925  -0.66061
 Alpha  occ. eigenvalues --   -0.63166  -0.57907  -0.56620  -0.55281  -0.53809
 Alpha  occ. eigenvalues --   -0.51330  -0.47817  -0.46868  -0.43907  -0.41516
 Alpha  occ. eigenvalues --   -0.38933  -0.37698  -0.36657  -0.36250  -0.35554
 Alpha  occ. eigenvalues --   -0.35022  -0.34108  -0.32396  -0.31392  -0.30308
 Alpha  occ. eigenvalues --   -0.29229  -0.29008  -0.28187  -0.26729  -0.25862
 Alpha  occ. eigenvalues --   -0.24953  -0.24620  -0.24185  -0.21692  -0.19672
 Alpha  occ. eigenvalues --   -0.17756  -0.17663  -0.17550  -0.17134  -0.13331
 Alpha  occ. eigenvalues --   -0.10897  -0.09917  -0.02815  -0.01310
 Alpha virt. eigenvalues --    0.08684   0.09810   0.15584   0.18093   0.19198
 Alpha virt. eigenvalues --    0.19826   0.20713   0.21789   0.23205   0.24047
 Alpha virt. eigenvalues --    0.24286   0.25470   0.26745   0.26804   0.27811

 Mulliken charges:
               1
     1  O   -0.489637
     2  N   -0.165223
     3  H    0.003865
     4  C    0.204811
     5  C    0.017921
     6  C    0.096186
     7  H   -0.176314
     8  C   -0.304617
     9  C    0.411282
    10  H   -0.050896
    11  H   -0.095732
    12  C    0.085534
    13  H   -0.021779
    14  C    0.242377
    15  H   -0.009347
    16  H   -0.046299
    17  H   -0.049625
    18  C   -0.070037
    19  C    0.091197
    20  H   -0.117722
    21  C    0.100405
    22  H   -0.112661
    23  C    0.097980
    24  C    0.071558
    25  H   -0.127959
    26  Cl  -0.221372
    27  C    0.091627
    28  H   -0.117223
    29  C    0.000774
    30  H   -0.163318
    31  C    0.102350
    32  H   -0.159901
    33  H   -0.118208
 Sum of Mulliken charges =  -1.00000

 Dipole moment (field-independent basis, Debye):
    X=              8.8635    Y=              5.0806    Z=              0.5921  Tot=             10.2335
 Quadrupole moment (field-independent basis, Debye-Ang):
   XX=           -143.3704   YY=           -144.8927   ZZ=           -116.0134
   XY=             -6.5173   XZ=             -4.1099   YZ=             -4.1591

  Exact polarizability:     198.825       0.447     192.443     -19.036      -2.642     103.752
 Approx polarizability:     270.243     -11.880     336.942     -37.253       1.608     161.095

 Summary of Natural Population Analysis:

                                       Natural Population
                Natural  -----------------------------------------------
    Atom  No    Charge         Core      Valence    Rydberg      Total
 -----------------------------------------------------------------------
      O    1   -0.77781      1.99981     6.77077    0.00723     8.77781
      N    2   -0.59859      1.99927     5.57706    0.02227     7.59859
      H    3    0.28879      0.00000     0.70439    0.00682     0.71121
      C    4    0.36440      1.99876     3.59651    0.04033     5.63560
      C    5   -0.09604      1.99866     4.07480    0.02258     6.09604
      C    6   -0.22870      1.99884     4.21257    0.01730     6.22870
      H    7    0.16855      0.00000     0.82684    0.00461     0.83145
      C    8   -0.14279      1.99892     4.12432    0.01955     6.14279
      C    9   -0.16191      1.99898     4.14271    0.02022     6.16191
      H   10    0.18625      0.00000     0.80844    0.00531     0.81375
      H   11    0.15035      0.00000     0.84505    0.00460     0.84965
      C   12   -0.00458      1.99895     3.98469    0.02094     6.00458
      H   13    0.19803      0.00000     0.79700    0.00497     0.80197
      C   14   -0.54245      1.99915     4.53281    0.01049     6.54245
      H   15    0.20399      0.00000     0.79215    0.00386     0.79601
      H   16    0.17681      0.00000     0.82044    0.00275     0.82319
      H   17    0.17256      0.00000     0.82462    0.00282     0.82744
      C   18   -0.03519      1.99899     4.01858    0.01763     6.03519
      C   19   -0.16952      1.99896     4.15498    0.01558     6.16952
      H   20    0.17809      0.00000     0.81848    0.00342     0.82191
      C   21   -0.16415      1.99909     4.15036    0.01470     6.16415
      H   22    0.16482      0.00000     0.83200    0.00318     0.83518
      C   23   -0.17164      1.99911     4.15788    0.01465     6.17164
      C   24   -0.18492      1.99899     4.17025    0.01569     6.18492
      H   25    0.16612      0.00000     0.83032    0.00356     0.83388
     Cl   26   -0.11442      9.99962     7.09897    0.01583    17.11442
      C   27   -0.20071      1.99909     4.18705    0.01457     6.20071
      H   28    0.16198      0.00000     0.83462    0.00340     0.83802
      C   29   -0.26036      1.99897     4.24135    0.02004     6.26036
      H   30    0.16437      0.00000     0.82996    0.00567     0.83563
      C   31   -0.21816      1.99894     4.20279    0.01643     6.21816
      H   32    0.16548      0.00000     0.83034    0.00418     0.83452
      H   33    0.16136      0.00000     0.83543    0.00320     0.83864
 =======================================================================
   * Total *   -1.00000     43.98310    93.62850    0.38840   138.00000

 ******   26 imaginary frequencies (negative Signs) ******

                      1                      2                      3
                      A                      A                      A
 Frequencies --  -2070.3425             -1494.7965             -1467.1496
 Red. masses --      1.0807                 1.0900                 1.0855
 Frc consts  --      2.7293                 1.4350                 1.3767
 IR Inten    --    148.8108                16.5510                68.9590

                      4                      5                      6
                      A                      A                      A
 Frequencies --  -1446.0172             -1388.1052             -1365.4492
 Red. masses --      1.0691                 1.0093                 1.0509
 Frc consts  --      1.3171                 1.1458                 1.1545
 IR Inten    --     31.4139                 0.2223                 0.4522

                      7                      8                      9
                      A                      A                      A
 Frequencies --  -1355.3970             -1313.3368             -1271.3436
 Red. masses --      1.0488                 1.0368                 1.0407
 Frc consts  --      1.1352                 1.0537                 0.9910
 IR Inten    --     14.0169                 0.3579                 0.3943

                     10                     11                     12
                      A                      A                      A
 Frequencies --  -1247.5063             -1168.8742             -1074.0645
 Red. masses --      1.0203                 1.0385                 1.0294
 Frc consts  --      0.9355                 0.8360                 0.6997
 IR Inten    --      0.0409                 0.2103                 3.0892

                     13                     14                     15
                      A                      A                      A
 Frequencies --  -1015.7458             -1007.8701              -985.3668
 Red. masses --      1.0497                 1.0509                 1.0805
 Frc consts  --      0.6381                 0.6289                 0.6181
 IR Inten    --      8.2910                 3.7350                 8.3698

                     16                     17                     18
                      A                      A                      A
 Frequencies --   -930.6230              -904.4231              -903.0681
 Red. masses --      1.0632                 1.1055                 1.1071
 Frc consts  --      0.5425                 0.5328                 0.5320
 IR Inten    --      0.5622                 1.7854                 1.7755

                     19                     20                     21
                      A                      A                      A
 Frequencies --   -847.2164              -830.1652              -739.9953
 Red. masses --      1.0650                 1.1083                 1.1174
 Frc consts  --      0.4504                 0.4500                 0.3605
 IR Inten    --      2.7176                 6.6985                 7.1525

                     22                     23                     24
                      A                      A                      A
 Frequencies --   -706.1601              -447.3804              -297.2669
 Red. masses --      1.0387                 1.5339                 1.9603
 Frc consts  --      0.3052                 0.1809                 0.1021
 IR Inten    --     14.7331                 5.7799                 0.8261

                     25                     26                     27
                      A                      A                      A
 Frequencies --   -244.6113              -104.0980               104.9477
 Red. masses --      2.3548                 4.6342                 8.4588
 Frc consts  --      0.0830                 0.0296                 0.0549
 IR Inten    --      1.6200                 4.2694                 1.4321

                     28                     29                     30
                      A                      A                      A
 Frequencies --    132.9821               145.5722               155.7534
 Red. masses --     11.2771                 8.3446                 8.9092
 Frc consts  --      0.1175                 0.1042                 0.1273
 IR Inten    --      5.9434                 4.6948                 0.1701

                     31                     32                     33
                      A                      A                      A
 Frequencies --    251.4823               256.3989               304.9967
 Red. masses --      6.3501                 6.5174                 7.1395
 Frc consts  --      0.2366                 0.2524                 0.3913
 IR Inten    --      3.2356                 1.9981                 2.7196

                     34                     35                     36
                      A                      A                      A
 Frequencies --    365.3884               389.1440               409.8509
 Red. masses --      1.1650                 8.1820                 6.3565
 Frc consts  --      0.0916                 0.7300                 0.6291
 IR Inten    --     19.9740                 5.5904                 0.8359

                     37                     38                     39
                      A                      A                      A
 Frequencies --    425.3569               440.5851               470.3679
 Red. masses --      9.3860                 4.4586                 3.3515
 Frc consts  --      1.0005                 0.5099                 0.4369
 IR Inten    --      0.8202                13.3779                 2.9525

                     40                     41                     42
                      A                      A                      A
 Frequencies --    495.9215               534.7640               549.9599
 Red. masses --      3.3987                10.3971                 4.7646
 Frc consts  --      0.4925                 1.7518                 0.8491
 IR Inten    --      2.3906                 0.0695                 0.1248

                     43                     44                     45
                      A                      A                      A
 Frequencies --    612.4752               624.9133               653.0379
 Red. masses --      6.2280                10.5749                 4.5242
 Frc consts  --      1.3765                 2.4331                 1.1368
 IR Inten    --      2.8644                 0.6576                17.0999

                     46                     47                     48
                      A                      A                      A
 Frequencies --    667.9229               691.3520               728.1433
 Red. masses --      7.0175                 4.0589                 3.3199
 Frc consts  --      1.8445                 1.1430                 1.0371
 IR Inten    --     15.8738                47.2766                18.5939

                     49                     50                     51
                      A                      A                      A
 Frequencies --    740.0857               755.0432               776.6780
 Red. masses --      3.1550                 5.7735                 3.7268
 Frc consts  --      1.0181                 1.9393                 1.3245
 IR Inten    --      4.2912                12.8322                 3.8241

                     52                     53                     54
                      A                      A                      A
 Frequencies --    802.3289               830.4043               839.4467
 Red. masses --      3.0171                 2.0729                 7.5371
 Frc consts  --      1.1443                 0.8422                 3.1293
 IR Inten    --     10.3712                12.1469                16.7714

                     55                     56                     57
                      A                      A                      A
 Frequencies --    851.4554               880.0392               903.1404
 Red. masses --      3.6764                 5.9343                 2.1797
 Frc consts  --      1.5704                 2.7078                 1.0475
 IR Inten    --      5.9827                 2.9692                15.9759

                     58                     59                     60
                      A                      A                      A
 Frequencies --    942.5533               970.4021              1000.6856
 Red. masses --      2.7707                 1.6488                 1.2749
 Frc consts  --      1.4503                 0.9148                 0.7522
 IR Inten    --     19.1996                16.8514                 9.8537

                     61                     62                     63
                      A                      A                      A
 Frequencies --   1033.6681              1067.7141              1081.0912
 Red. masses --      1.8728                 3.7139                 3.8991
 Frc consts  --      1.1790                 2.4945                 2.6850
 IR Inten    --      2.5327                 0.2702                17.0613

                     64                     65                     66
                      A                      A                      A
 Frequencies --   1123.7052              1152.9139              1234.1472
 Red. masses --      3.2339                 4.6688                 8.4426
 Frc consts  --      2.4059                 3.6563                 7.5763
 IR Inten    --     24.8861                 7.0957                25.7067

                     67                     68                     69
                      A                      A                      A
 Frequencies --   1244.3203              1289.9091              1377.4593
 Red. masses --      7.2107                 9.5964                 8.2149
 Frc consts  --      6.5780                 9.4076                 9.1835
 IR Inten    --      6.3066                62.0201                 0.2616

                     70                     71                     72
                      A                      A                      A
 Frequencies --   1434.8687              1458.8658              1479.0274
 Red. masses --     10.2818                 9.7757                 9.2293
 Frc consts  --     12.4722                12.2583                11.8953
 IR Inten    --    187.2009                42.5442                 4.4818

                     73                     74                     75
                      A                      A                      A
 Frequencies --   1499.7817              1514.3833              1642.5900
 Red. masses --      9.3996                 8.2505                10.8970
 Frc consts  --     12.4571                11.1481                17.3227
 IR Inten    --     54.0202                 1.1884                62.5683

                     76                     77                     78
                      A                      A                      A
 Frequencies --   1677.9685              1695.4839              1760.8789
 Red. masses --     10.5236                10.4615                 9.8954
 Frc consts  --     17.4575                17.7186                18.0777
 IR Inten    --     16.6016                20.2927                 0.4376

                     79                     80                     81
                      A                      A                      A
 Frequencies --   4367.5171              4400.8709              4468.4068
 Red. masses --      1.0880                 1.0593                 1.0322
 Frc consts  --     12.2278                12.0873                12.1425
 IR Inten    --      1.4837                35.0916                12.4411

                     82                     83                     84
                      A                      A                      A
 Frequencies --   4522.1497              4672.0984              4681.4144
 Red. masses --      1.1087                 1.1063                 1.1071
 Frc consts  --     13.3582                14.2283                14.2958
 IR Inten    --      9.3694                 7.2758                 2.2751

                     85                     86                     87
                      A                      A                      A
 Frequencies --   5017.1134              5025.5440              5025.9389
 Red. masses --      1.0860                 1.0888                 1.0881
 Frc consts  --     16.1067                16.2024                16.1939
 IR Inten    --      0.1799                 3.0017                 2.2106

                     88                     89                     90
                      A                      A                      A
 Frequencies --   5026.8692              5032.2385              5036.3083
 Red. masses --      1.0881                 1.0892                 1.0909
 Frc consts  --     16.1997                16.2514                16.3030
 IR Inten    --      3.1309                 3.0907                 2.2996

                     91                     92                     93
                      A                      A                      A
 Frequencies --   5043.7004              5044.8996              6209.8588
 Red. masses --      1.0925                 1.0900                 1.0755
 Frc consts  --     16.3753                16.3452                24.4357
 IR Inten    --      3.2424                 2.7390                 4.9444

 - Thermochemistry -
 -------------------
 Temperature   298.150 Kelvin.  Pressure   1.00000 Atm.
 Atom     1 has atomic number  8 and mass  15.99491

 Molecular mass:   260.08422 amu.
 Principal axes and moments of inertia in atomic units:
                           1         2         3
     Eigenvalues --  3143.393357639.852409938.06176
           X            0.99991   0.01357   0.00031
           Y           -0.01356   0.99972  -0.01918
           Z           -0.00057   0.01918   0.99982
 This molecule is an asymmetric top.
 Rotational symmetry number  1.
 Warning -- assumption of classical behavior for rotation
           may cause significant error
 Rotational temperatures (Kelvin)      0.02755     0.01134     0.00872
 Rotational constants (GHZ):           0.57414     0.23623     0.18160
   26 imaginary frequencies ignored.
 Zero-point vibrational energy     706079.6 (Joules/Mol)
                                  168.75706 (Kcal/Mol)
 Warning -- explicit consideration of  17 degrees of freedom as
           vibrations may cause significant error
 Vibrational temperatures:    151.00   191.33   209.45   224.09   361.83
          (Kelvin)            368.90   438.82   525.71   559.89   589.68
                              611.99   633.90   676.75   713.52   769.41
                              791.27   881.22   899.11   939.58   960.99
                              994.70  1047.64  1064.82  1086.34  1117.47
                             1154.37  1194.77  1207.78  1225.05  1266.18
                             1299.42  1356.12  1396.19  1439.76  1487.22
                             1536.20  1555.45  1616.76  1658.79  1775.66
                             1790.30  1855.89  1981.86  2064.46  2098.98
                             2127.99  2157.85  2178.86  2363.32  2414.22
                             2439.42  2533.51  6283.88  6331.87  6429.04
                             6506.36  6722.11  6735.51  7218.51  7230.64
                             7231.21  7232.54  7240.27  7246.12  7256.76
                             7258.49  8934.60

 Zero-point correction=                           0.268932 (Hartree/Particle)
 Thermal correction to Energy=                    0.279992
 Thermal correction to Enthalpy=                  0.280936
 Thermal correction to Gibbs Free Energy=         0.231145
 Sum of electronic and zero-point Energies=          -1168.636441
 Sum of electronic and thermal Energies=             -1168.625381
 Sum of electronic and thermal Enthalpies=           -1168.624436
 Sum of electronic and thermal Free Energies=        -1168.674228

                     E (Thermal)             CV                S
                      KCal/Mol        Cal/Mol-Kelvin    Cal/Mol-Kelvin
 Total                  175.698             45.864            104.795
 Electronic               0.000              0.000              0.000
 Translational            0.889              2.981             42.567
 Rotational               0.889              2.981             33.834
 Vibrational            173.920             39.903             28.394
 Vibration     1          0.605              1.945              3.360
 Vibration     2          0.613              1.920              2.902
 Vibration     3          0.617              1.907              2.729
 Vibration     4          0.620              1.896              2.601
 Vibration     5          0.663              1.760              1.720
 Vibration     6          0.666              1.752              1.686
 Vibration     7          0.696              1.664              1.389
 Vibration     8          0.739              1.543              1.099
 Vibration     9          0.757              1.493              1.003
 Vibration    10          0.774              1.449              0.927
 Vibration    11          0.787              1.415              0.874
 Vibration    12          0.800              1.382              0.825
 Vibration    13          0.827              1.316              0.737
 Vibration    14          0.851              1.259              0.668
 Vibration    15          0.890              1.173              0.577
 Vibration    16          0.905              1.140              0.544
 Vibration    17          0.972              1.005              0.429

 Normal termination of Gaussian 16 at Mon Mar  6 11:15:40 2023.
