 Gaussian 16, Revision C.01,
 Gaussian 16:  ES64L-G16RevC.01  3-Jul-2019

 ----------------------------------------------------------------------
 #p pop=(regular,nbo,savenbos) freq=noraman def2svp empiricaldispersion
 =gd3bj output=wfx pbe1pbe
 ----------------------------------------------------------------------

 ----------------------------------------
 PIQDEY_Complex_2_Ligand_1_ON_Cu_oriented
 ----------------------------------------
 Symbolic Z-matrix:
 Charge =  0 Multiplicity = 1

                         Standard orientation:
 ---------------------------------------------------------------------
 Center     Atomic      Atomic             Coordinates (Angstroms)
 Number     Number       Type             X           Y           Z
 ---------------------------------------------------------------------
      1          8           0       -0.370910    2.251429    0.070149
      2          6           0       -0.233447   -0.144297    0.456079
      3          6           0       -2.402770    0.992401   -0.093851
      4          6           0       -0.895357    0.960005   -0.344928
      5          1           0       -0.333839    0.133421    1.487519
      6          1           0       -2.713635    1.680757   -0.705014
      7          1           0       -2.511752    1.192005    0.771121
      8          1           0       -0.665660    0.762268   -1.342706
      9          1           0       -0.524516    2.762729   -0.539940
     10          7           0        1.207073   -0.210542    0.145029
     11          7           0        2.007825    0.842673    0.424052
     12          6           0        3.237711    0.467002    0.100813
     13          6           0        3.238243   -0.818746   -0.387098
     14          6           0        1.939843   -1.223029   -0.342501
     15          1           0        3.933827    1.030220    0.178879
     16          1           0        3.936148   -1.219068   -0.702401
     17          1           0        1.540321   -2.047818   -0.538512
     18          6           0       -0.896161   -1.489608    0.130475
     19          6           0       -2.390154   -1.441389    0.403108
     20          6           0       -3.044667   -0.356348   -0.403571
     21          1           0       -0.767276   -1.650984   -0.741159
     22          1           0       -0.467057   -2.188325    0.634635
     23          1           0       -2.769664   -2.341046    0.097613
     24          1           0       -2.641192   -1.244787    1.423490
     25          1           0       -3.962869   -0.283124   -0.209226
     26          1           0       -2.909278   -0.698543   -1.470217
 ---------------------------------------------------------------------

 SCF Done:  E(RPBE1PBE) =  -534.823857536     A.U. after   14 cycles

 The electronic state is 1-A.
 Alpha  occ. eigenvalues --  -19.18159 -14.45666 -14.37656 -10.27713 -10.27620
 Alpha  occ. eigenvalues --  -10.23833 -10.22748 -10.22180 -10.21475 -10.20920
 Alpha  occ. eigenvalues --  -10.20143 -10.18637  -1.06467  -1.05302  -0.89287
 Alpha  occ. eigenvalues --   -0.84171  -0.79898  -0.78993  -0.76353  -0.68395
 Alpha  occ. eigenvalues --   -0.65418  -0.62632  -0.60938  -0.58780  -0.56724
 Alpha  occ. eigenvalues --   -0.54977  -0.51652  -0.50057  -0.48698  -0.46492
 Alpha  occ. eigenvalues --   -0.45367  -0.44544  -0.43054  -0.42108  -0.41471
 Alpha  occ. eigenvalues --   -0.40215  -0.39012  -0.37132  -0.35560  -0.34258
 Alpha  occ. eigenvalues --   -0.33907  -0.29081  -0.26558  -0.25294  -0.24504
 Alpha virt. eigenvalues --    0.03373   0.06422   0.08109   0.08812   0.09724
 Alpha virt. eigenvalues --    0.10661   0.12998   0.13547   0.14375   0.15105
 Alpha virt. eigenvalues --    0.15793   0.16418   0.16659   0.17662   0.19044

 Mulliken charges:
               1
     1  O   -0.205325
     2  C    0.078329
     3  C    0.226836
     4  C    0.068251
     5  H    0.036245
     6  H   -0.025068
     7  H   -0.075494
     8  H   -0.005567
     9  H    0.072578
    10  N   -0.247757
    11  N   -0.125377
    12  C    0.206855
    13  C    0.035639
    14  C    0.221053
    15  H   -0.120079
    16  H   -0.167926
    17  H   -0.079605
    18  C    0.149995
    19  C    0.015860
    20  C   -0.006916
    21  H   -0.068199
    22  H   -0.005022
    23  H    0.006978
    24  H    0.022828
    25  H   -0.035202
    26  H    0.026089
 Sum of Mulliken charges =  -0.00000

 Dipole moment (field-independent basis, Debye):
    X=             -2.8023    Y=             -2.0179    Z=             -1.6740  Tot=              3.8376
 Quadrupole moment (field-independent basis, Debye-Ang):
   XX=            -68.3356   YY=            -69.8556   ZZ=            -71.3018
   XY=             -2.3598   XZ=             -1.4051   YZ=             -3.4149

  Exact polarizability:     120.524       2.431      93.710      -2.080       4.043      71.120
 Approx polarizability:     152.161       3.168     140.979      -4.774      13.221     108.613

 Summary of Natural Population Analysis:

                                       Natural Population
                Natural  -----------------------------------------------
    Atom  No    Charge         Core      Valence    Rydberg      Total
 -----------------------------------------------------------------------
      O    1   -0.69535      1.99969     6.67645    0.01921     8.69535
      C    2   -0.03199      1.99904     4.01001    0.02294     6.03199
      C    3   -0.36354      1.99889     4.34630    0.01835     6.36354
      C    4    0.14140      1.99889     3.83857    0.02113     5.85860
      H    5    0.23914      0.00000     0.75557    0.00529     0.76086
      H    6    0.19538      0.00000     0.80008    0.00454     0.80462
      H    7    0.16250      0.00000     0.83189    0.00561     0.83750
      H    8    0.18102      0.00000     0.81424    0.00474     0.81898
      H    9    0.41451      0.00000     0.57811    0.00738     0.58549
      N   10   -0.21150      1.99914     5.19231    0.02006     7.21150
      N   11   -0.30034      1.99947     5.27831    0.02257     7.30034
      C   12    0.03711      1.99924     3.94083    0.02282     5.96289
      C   13   -0.26888      1.99909     4.25528    0.01451     6.26888
      C   14    0.00884      1.99919     3.97261    0.01935     5.99116
      H   15    0.14378      0.00000     0.85419    0.00203     0.85622
      H   16    0.14674      0.00000     0.85092    0.00234     0.85326
      H   17    0.16528      0.00000     0.83221    0.00251     0.83472
      C   18   -0.35379      1.99885     4.33882    0.01612     6.35379
      C   19   -0.40132      1.99919     4.39022    0.01191     6.40132
      C   20   -0.38171      1.99908     4.36908    0.01354     6.38171
      H   21    0.16278      0.00000     0.83224    0.00498     0.83722
      H   22    0.20234      0.00000     0.79416    0.00350     0.79766
      H   23    0.21176      0.00000     0.78464    0.00360     0.78824
      H   24    0.20952      0.00000     0.78654    0.00394     0.79048
      H   25    0.17968      0.00000     0.81664    0.00368     0.82032
      H   26    0.20661      0.00000     0.78973    0.00367     0.79339
 =======================================================================
   * Total *    0.00000     23.98975    65.72996    0.28030    90.00000

 ******   17 imaginary frequencies (negative Signs) ******

                      1                      2                      3
                      A                      A                      A
 Frequencies --  -2232.7693             -2055.8165             -1778.5939
 Red. masses --      1.0698                 1.0838                 1.0575
 Frc consts  --      3.1422                 2.6987                 1.9709
 IR Inten    --    125.0892                40.8811                12.8590

                      4                      5                      6
                      A                      A                      A
 Frequencies --  -1740.5752             -1662.0145             -1558.8528
 Red. masses --      1.0994                 1.0697                 1.0353
 Frc consts  --      1.9625                 1.7410                 1.4823
 IR Inten    --    108.9251                13.7071                11.0294

                      7                      8                      9
                      A                      A                      A
 Frequencies --  -1545.0998             -1421.3732             -1352.2059
 Red. masses --      1.0526                 1.0831                 1.0805
 Frc consts  --      1.4806                 1.2893                 1.1640
 IR Inten    --      0.4347                 3.4647                 4.6436

                     10                     11                     12
                      A                      A                      A
 Frequencies --  -1310.2055             -1282.3011             -1041.3127
 Red. masses --      1.0639                 1.0570                 1.0627
 Frc consts  --      1.0760                 1.0240                 0.6789
 IR Inten    --     21.4694                 8.5150                 0.6633

                     13                     14                     15
                      A                      A                      A
 Frequencies --   -819.6784              -776.3428              -512.0527
 Red. masses --      1.1411                 1.0627                 1.3307
 Frc consts  --      0.4517                 0.3774                 0.2056
 IR Inten    --      0.3611                16.6308                 2.6775

                     16                     17                     18
                      A                      A                      A
 Frequencies --   -390.4274              -272.3675                39.9255
 Red. masses --      1.2816                 1.2022                 8.3077
 Frc consts  --      0.1151                 0.0525                 0.0078
 IR Inten    --      0.2827                 2.4739                 0.7358

                     19                     20                     21
                      A                      A                      A
 Frequencies --    184.4261               235.1462               319.8060
 Red. masses --      3.9691                 6.2765                 6.2436
 Frc consts  --      0.0795                 0.2045                 0.3762
 IR Inten    --      1.0719                 0.1324                 0.4591

                     22                     23                     24
                      A                      A                      A
 Frequencies --    383.6180               423.6453               464.7635
 Red. masses --      4.2883                 5.5215                 3.0007
 Frc consts  --      0.3718                 0.5839                 0.3819
 IR Inten    --      4.4810                 2.2953                 2.5964

                     25                     26                     27
                      A                      A                      A
 Frequencies --    498.1383               535.7951               552.4044
 Red. masses --      2.6956                 2.7822                 2.7179
 Frc consts  --      0.3941                 0.4706                 0.4887
 IR Inten    --      8.9486                 0.3095                 6.1152

                     28                     29                     30
                      A                      A                      A
 Frequencies --    570.0363               650.7256               673.9707
 Red. masses --      2.2719                 1.7806                 5.3122
 Frc consts  --      0.4350                 0.4442                 1.4217
 IR Inten    --      5.1547                 9.6990                 3.5863

                     31                     32                     33
                      A                      A                      A
 Frequencies --    692.5937               713.5059               785.2168
 Red. masses --      1.5965                 7.1857                 2.8435
 Frc consts  --      0.4512                 2.1553                 1.0330
 IR Inten    --      2.4513                 0.9564                10.6840

                     34                     35                     36
                      A                      A                      A
 Frequencies --    841.0610               907.7987               927.4529
 Red. masses --      2.8542                 1.4708                 3.5350
 Frc consts  --      1.1896                 0.7141                 1.7915
 IR Inten    --      2.7756                 3.0829                16.1520

                     37                     38                     39
                      A                      A                      A
 Frequencies --    979.6319              1024.0033              1066.3587
 Red. masses --      5.9876                 3.1468                 4.2430
 Frc consts  --      3.3855                 1.9441                 2.8427
 IR Inten    --      2.9167                25.5204                 1.9337

                     40                     41                     42
                      A                      A                      A
 Frequencies --   1075.3600              1098.5377              1109.0381
 Red. masses --      1.7826                 2.5638                 2.2443
 Frc consts  --      1.2146                 1.8229                 1.6264
 IR Inten    --      5.6113                 4.5943                 4.5504

                     43                     44                     45
                      A                      A                      A
 Frequencies --   1135.5753              1167.3155              1181.9445
 Red. masses --      2.6361                 1.6609                 2.0061
 Frc consts  --      2.0028                 1.3334                 1.6512
 IR Inten    --      0.9860                 2.9327                 8.0847

                     46                     47                     48
                      A                      A                      A
 Frequencies --   1188.6181              1214.8121              1244.4132
 Red. masses --      1.9341                 2.5119                 1.8181
 Frc consts  --      1.6099                 2.1841                 1.6588
 IR Inten    --      7.0245                 0.4570                 3.7608

                     49                     50                     51
                      A                      A                      A
 Frequencies --   1250.7805              1300.9549              1339.9439
 Red. masses --      2.6537                 5.3674                 1.4565
 Frc consts  --      2.4461                 5.3523                 1.5407
 IR Inten    --      0.4858                41.2248                12.6496

                     52                     53                     54
                      A                      A                      A
 Frequencies --   1343.9301              1363.9045              1393.0620
 Red. masses --      1.7259                 1.2779                 7.2413
 Frc consts  --      1.8366                 1.4006                 8.2796
 IR Inten    --      2.1667                 3.5050                 0.2815

                     55                     56                     57
                      A                      A                      A
 Frequencies --   1402.1870              1497.5418              1514.6463
 Red. masses --      1.2779                 8.8386                 7.9552
 Frc consts  --      1.4804                11.6786                10.7529
 IR Inten    --      7.3926                13.5633                 7.1063

                     58                     59                     60
                      A                      A                      A
 Frequencies --   1571.1496              2843.7115              3370.9569
 Red. masses --      9.4360                 1.0760                 1.0872
 Frc consts  --     13.7238                 5.1267                 7.2791
 IR Inten    --     45.2952                35.0036                 8.0933

                     61                     62                     63
                      A                      A                      A
 Frequencies --   3392.0312              3659.2289              3876.6662
 Red. masses --      1.0771                 1.0875                 1.0904
 Frc consts  --      7.3017                 8.5791                 9.6550
 IR Inten    --     23.5764                21.7675                15.0945

                     64                     65                     66
                      A                      A                      A
 Frequencies --   4452.0181              4570.1256              4860.8391
 Red. masses --      1.0772                 1.0793                 1.0875
 Frc consts  --     12.5798                13.2816                15.1395
 IR Inten    --      7.4580                 4.9593                 5.5195

                     67                     68                     69
                      A                      A                      A
 Frequencies --   4956.0264              5492.7498              5495.3705
 Red. masses --      1.0920                 1.0911                 1.0882
 Frc consts  --     15.8024                19.3960                19.3619
 IR Inten    --      1.2498                 1.3694                 1.3734

                     70                     71                     72
                      A                      A                      A
 Frequencies --   5527.8817              6021.8430              6512.7756
 Red. masses --      1.0899                 1.0908                 1.0672
 Frc consts  --     19.6223                23.3051                26.6700
 IR Inten    --      0.0686                 4.4388                77.3172

 - Thermochemistry -
 -------------------
 Temperature   298.150 Kelvin.  Pressure   1.00000 Atm.
 Atom     1 has atomic number  8 and mass  15.99491

 Molecular mass:   166.11061 amu.
 Principal axes and moments of inertia in atomic units:
                           1         2         3
     Eigenvalues --   917.016172707.253413439.81530
           X            0.99999   0.00398  -0.00112
           Y           -0.00399   0.99997  -0.00716
           Z            0.00109   0.00716   0.99997
 This molecule is an asymmetric top.
 Rotational symmetry number  1.
 Warning -- assumption of classical behavior for rotation
           may cause significant error
 Rotational temperatures (Kelvin)      0.09445     0.03199     0.02518
 Rotational constants (GHZ):           1.96806     0.66663     0.52466
   17 imaginary frequencies ignored.
 Zero-point vibrational energy     615454.5 (Joules/Mol)
                                  147.09717 (Kcal/Mol)
 Warning -- explicit consideration of  11 degrees of freedom as
           vibrations may cause significant error
 Vibrational temperatures:     57.44   265.35   338.32   460.13   551.94
          (Kelvin)            609.53   668.69   716.71   770.89   794.79
                              820.16   936.25   969.69   996.49  1026.58
                             1129.75  1210.10  1306.12  1334.40  1409.47
                             1473.31  1534.25  1547.20  1580.55  1595.66
                             1633.84  1679.51  1700.55  1710.16  1747.84
                             1790.43  1799.59  1871.78  1927.88  1933.62
                             1962.35  2004.31  2017.43  2154.63  2179.24
                             2260.53  4091.47  4850.06  4880.38  5264.81
                             5577.66  6405.46  6575.39  6993.66  7130.62
                             7902.84  7906.61  7953.39  8664.09  9370.43

 Zero-point correction=                           0.234414 (Hartree/Particle)
 Thermal correction to Energy=                    0.242343
 Thermal correction to Enthalpy=                  0.243287
 Thermal correction to Gibbs Free Energy=         0.200399
 Sum of electronic and zero-point Energies=           -534.589443
 Sum of electronic and thermal Energies=              -534.581514
 Sum of electronic and thermal Enthalpies=            -534.580570
 Sum of electronic and thermal Free Energies=         -534.623459

                     E (Thermal)             CV                S
                      KCal/Mol        Cal/Mol-Kelvin    Cal/Mol-Kelvin
 Total                  152.073             32.116             90.267
 Electronic               0.000              0.000              0.000
 Translational            0.889              2.981             41.231
 Rotational               0.889              2.981             30.525
 Vibrational            150.295             26.155             18.512
 Vibration     1          0.594              1.981              5.263
 Vibration     2          0.631              1.861              2.283
 Vibration     3          0.655              1.787              1.839
 Vibration     4          0.706              1.636              1.311
 Vibration     5          0.753              1.505              1.025
 Vibration     6          0.786              1.419              0.880
 Vibration     7          0.822              1.328              0.752
 Vibration     8          0.854              1.254              0.663
 Vibration     9          0.891              1.171              0.574
 Vibration    10          0.908              1.134              0.539
 Vibration    11          0.926              1.096              0.504

 Normal termination of Gaussian 16 at Sat Mar  4 11:50:31 2023.
