 Gaussian 16, Revision C.01,
 Gaussian 16:  ES64L-G16RevC.01  3-Jul-2019

 ----------------------------------------------------------------------
 #p pop=(regular,nbo,savenbos) freq=noraman def2svp empiricaldispersion
 =gd3bj output=wfx pbe1pbe
 ----------------------------------------------------------------------

 ----------------------------------------
 PIXXIE_Complex_2_Ligand_1_SO_Cu_oriented
 ----------------------------------------
 Symbolic Z-matrix:
 Charge = -1 Multiplicity = 1

                         Standard orientation:
 ---------------------------------------------------------------------
 Center     Atomic      Atomic             Coordinates (Angstroms)
 Number     Number       Type             X           Y           Z
 ---------------------------------------------------------------------
      1         16           0        1.239390   -1.206934    0.523913
      2         15           0       -1.295014    0.072649    0.695804
      3         16           0       -1.720637   -0.049650    2.640888
      4          8           0        1.365930   -1.498877    1.952388
      5          8           0        1.047576   -2.382983   -0.270851
      6          7           0        0.235256   -0.052825    0.228336
      7          6           0        2.786208   -0.501359    0.050591
      8          6           0        3.011582    0.861515    0.088246
      9          1           0        2.314810    1.448764    0.273817
     10          6           0       -1.755598    1.703909    0.050190
     11          6           0       -2.315955   -1.095284   -0.250671
     12          6           0        3.826059   -1.362735   -0.260113
     13          1           0        3.677329   -2.279131   -0.312320
     14          6           0       -1.901827   -1.579667   -1.469005
     15          1           0       -1.064818   -1.339545   -1.793820
     16          6           0       -2.695473   -2.407399   -2.210849
     17          6           0       -3.869637   -2.805879   -1.773503
     18          1           0       -4.408290   -3.340179   -2.310310
     19          6           0       -1.058743    2.295940   -0.943232
     20          1           0       -0.321045    1.867957   -1.314042
     21          6           0       -3.519799   -1.518172    0.210938
     22          1           0       -3.847113   -1.212060    1.026111
     23          6           0       -4.282359   -2.444264   -0.584235
     24          1           0       -5.072932   -2.802207   -0.245078
     25          6           0        4.290706    1.345575   -0.154434
     26          1           0        4.438604    2.262508   -0.115309
     27          6           0        5.337938    0.519521   -0.448080
     28          6           0        6.711795    1.066537   -0.738223
     29          1           0        6.697411    2.022924   -0.661720
     30          1           0        6.973266    0.818649   -1.627121
     31          1           0        7.339516    0.704894   -0.107131
     32          6           0        5.087207   -0.846155   -0.491992
     33          1           0        5.786899   -1.429107   -0.681221
     34          6           0       -2.877055    2.355228    0.578292
     35          1           0       -3.360948    1.963793    1.269132
     36          6           0       -1.450343    3.568835   -1.417978
     37          1           0       -0.956304    3.985765   -2.087132
     38          6           0       -2.537017    4.181050   -0.907702
     39          1           0       -2.794878    5.015882   -1.223596
     40          6           0       -3.256646    3.572492    0.075060
     41          1           0       -4.018169    3.988272    0.408912
     42          1           0       -2.399263   -2.695059   -3.043502
 ---------------------------------------------------------------------

 SCF Done:  E(RPBE1PBE) =  -2074.36038294     A.U. after   15 cycles

 The electronic state is 1-A.
 Alpha  occ. eigenvalues --  -89.06650 -88.78995 -77.15002 -19.02789 -19.01170
 Alpha  occ. eigenvalues --  -14.21064 -10.14451 -10.13305 -10.12535 -10.12142
 Alpha  occ. eigenvalues --  -10.12132 -10.12093 -10.11947 -10.11895 -10.11848
 Alpha  occ. eigenvalues --  -10.11782 -10.11736 -10.11727 -10.11720 -10.11560
 Alpha  occ. eigenvalues --  -10.11350 -10.11120 -10.10610 -10.10374 -10.10271
 Alpha  occ. eigenvalues --   -8.03379  -7.79170  -6.54751  -5.97564  -5.97505
 Alpha  occ. eigenvalues --   -5.97470  -5.73463  -5.72712  -5.72674  -4.68838
 Alpha  occ. eigenvalues --   -4.68772  -4.68731  -0.98023  -0.84257  -0.79650
 Alpha  occ. eigenvalues --   -0.79311  -0.79009  -0.76732  -0.72084  -0.69590
 Alpha  occ. eigenvalues --   -0.68252  -0.68191  -0.67969  -0.67084  -0.64564
 Alpha  occ. eigenvalues --   -0.60245  -0.55613  -0.55306  -0.54740  -0.53639
 Alpha  occ. eigenvalues --   -0.52901  -0.52304  -0.50244  -0.47907  -0.47204
 Alpha  occ. eigenvalues --   -0.45054  -0.41470  -0.40404  -0.40104  -0.39827
 Alpha  occ. eigenvalues --   -0.38473  -0.37861  -0.37481  -0.37016  -0.35965
 Alpha  occ. eigenvalues --   -0.35669  -0.35388  -0.34835  -0.34160  -0.33942
 Alpha  occ. eigenvalues --   -0.33443  -0.30936  -0.29935  -0.29141  -0.28684
 Alpha  occ. eigenvalues --   -0.28297  -0.27994  -0.27383  -0.27022  -0.26691
 Alpha  occ. eigenvalues --   -0.25002  -0.23585  -0.21012  -0.19377  -0.18397
 Alpha  occ. eigenvalues --   -0.17128  -0.17000  -0.16803  -0.16687  -0.16395
 Alpha  occ. eigenvalues --   -0.15586  -0.14776  -0.13029  -0.10493  -0.08122
 Alpha  occ. eigenvalues --   -0.08044
 Alpha virt. eigenvalues --    0.08245   0.09018   0.09171   0.09660   0.10408
 Alpha virt. eigenvalues --    0.11340   0.16628   0.18799   0.19360   0.20758
 Alpha virt. eigenvalues --    0.21220   0.21561   0.22123   0.22596   0.22845

 Mulliken charges:
               1
     1  S    0.915406
     2  P    0.606788
     3  S   -0.463453
     4  O   -0.515767
     5  O   -0.516930
     6  N   -0.623290
     7  C   -0.072049
     8  C    0.148629
     9  H   -0.113702
    10  C   -0.086437
    11  C   -0.086951
    12  C    0.139927
    13  H   -0.113569
    14  C    0.132476
    15  H   -0.119141
    16  C    0.101522
    17  C    0.111583
    18  H   -0.125273
    19  C    0.093603
    20  H   -0.106898
    21  C    0.102561
    22  H   -0.130554
    23  C    0.087519
    24  H   -0.114459
    25  C    0.057927
    26  H   -0.132206
    27  C   -0.135103
    28  C    0.287345
    29  H   -0.045855
    30  H   -0.017337
    31  H   -0.016373
    32  C    0.056414
    33  H   -0.133150
    34  C    0.135757
    35  H   -0.129645
    36  C    0.093878
    37  H   -0.113117
    38  C    0.100185
    39  H   -0.118692
    40  C    0.092643
    41  H   -0.114545
    42  H   -0.119667
 Sum of Mulliken charges =  -1.00000

 Dipole moment (field-independent basis, Debye):
    X=              1.2195    Y=              4.5139    Z=             -7.2378  Tot=              8.6168
 Quadrupole moment (field-independent basis, Debye-Ang):
   XX=           -173.4368   YY=           -178.0707   ZZ=           -189.1994
   XY=              5.9761   XZ=              0.7674   YZ=              4.0632

  Exact polarizability:     295.440      11.591     244.885     -23.187       0.639     196.471
 Approx polarizability:     396.023      11.774     371.470     -57.547      -1.344     348.130

 Summary of Natural Population Analysis:

                                       Natural Population
                Natural  -----------------------------------------------
    Atom  No    Charge         Core      Valence    Rydberg      Total
 -----------------------------------------------------------------------
      S    1    2.33309      9.99804     3.43573    0.23314    13.66691
      P    2    1.55929      9.99751     3.32349    0.11971    13.44071
      S    3   -0.69138      9.99933     6.67709    0.01496    16.69138
      O    4   -0.96030      1.99978     6.95253    0.00799     8.96030
      O    5   -0.99407      1.99976     6.98595    0.00836     8.99407
      N    6   -1.39726      1.99921     6.38298    0.01508     8.39726
      C    7   -0.26708      1.99888     4.24037    0.02783     6.26708
      C    8   -0.13746      1.99898     4.12216    0.01632     6.13746
      H    9    0.19179      0.00000     0.80480    0.00341     0.80821
      C   10   -0.34692      1.99890     4.31766    0.03036     6.34692
      C   11   -0.37196      1.99886     4.34140    0.03170     6.37196
      C   12   -0.14401      1.99900     4.12734    0.01767     6.14401
      H   13    0.18581      0.00000     0.80981    0.00438     0.81419
      C   14   -0.12504      1.99900     4.10779    0.01826     6.12504
      H   15    0.18346      0.00000     0.81112    0.00542     0.81654
      C   16   -0.17428      1.99906     4.15956    0.01566     6.17428
      C   17   -0.19372      1.99903     4.17983    0.01485     6.19372
      H   18    0.16430      0.00000     0.83202    0.00368     0.83570
      C   19   -0.14777      1.99893     4.13188    0.01695     6.14777
      H   20    0.18723      0.00000     0.80913    0.00364     0.81277
      C   21   -0.13063      1.99895     4.11418    0.01750     6.13063
      H   22    0.18137      0.00000     0.81267    0.00596     0.81863
      C   23   -0.17120      1.99905     4.15640    0.01574     6.17120
      H   24    0.16107      0.00000     0.83568    0.00325     0.83893
      C   25   -0.19269      1.99896     4.17851    0.01523     6.19269
      H   26    0.16464      0.00000     0.83211    0.00326     0.83536
      C   27   -0.02004      1.99901     4.00629    0.01474     6.02004
      C   28   -0.55602      1.99914     4.54772    0.00916     6.55602
      H   29    0.18657      0.00000     0.81075    0.00267     0.81343
      H   30    0.19148      0.00000     0.80580    0.00273     0.80852
      H   31    0.19250      0.00000     0.80475    0.00275     0.80750
      C   32   -0.18822      1.99899     4.17390    0.01533     6.18822
      H   33    0.16299      0.00000     0.83376    0.00325     0.83701
      C   34   -0.13079      1.99901     4.11424    0.01753     6.13079
      H   35    0.18224      0.00000     0.81122    0.00654     0.81776
      C   36   -0.17140      1.99909     4.15723    0.01508     6.17140
      H   37    0.16160      0.00000     0.83525    0.00315     0.83840
      C   38   -0.18634      1.99909     4.17278    0.01447     6.18634
      H   39    0.16173      0.00000     0.83491    0.00336     0.83827
      C   40   -0.17997      1.99909     4.16592    0.01496     6.17997
      H   41    0.16278      0.00000     0.83396    0.00325     0.83722
      H   42    0.16461      0.00000     0.83198    0.00341     0.83539
 =======================================================================
   * Total *   -1.00000     73.97464   127.22264    0.80273   202.00000

 ******   34 imaginary frequencies (negative Signs) ******

                      1                      2                      3
                      A                      A                      A
 Frequencies --  -1465.8837             -1459.4401             -1425.5337
 Red. masses --      1.0846                 1.0808                 1.0621
 Frc consts  --      1.3731                 1.3564                 1.2716
 IR Inten    --     54.9351                60.0892                37.6595

                      4                      5                      6
                      A                      A                      A
 Frequencies --  -1407.6622             -1377.4023             -1363.0354
 Red. masses --      1.0154                 1.0474                 1.0430
 Frc consts  --      1.1854                 1.1708                 1.1417
 IR Inten    --      6.8522                 0.4556                 0.0781

                      7                      8                      9
                      A                      A                      A
 Frequencies --  -1357.6273             -1299.6251             -1295.3830
 Red. masses --      1.0430                 1.0330                 1.0333
 Frc consts  --      1.1326                 1.0280                 1.0216
 IR Inten    --      0.5906                 0.7396                 2.2868

                     10                     11                     12
                      A                      A                      A
 Frequencies --  -1246.8926             -1237.1791             -1233.3557
 Red. masses --      1.0214                 1.0192                 1.0194
 Frc consts  --      0.9356                 0.9191                 0.9136
 IR Inten    --      0.0434                 0.3150                 0.2750

                     13                     14                     15
                      A                      A                      A
 Frequencies --  -1231.3282             -1166.8545             -1145.8666
 Red. masses --      1.0417                 1.0375                 1.0340
 Frc consts  --      0.9305                 0.8323                 0.7999
 IR Inten    --      0.7643                 0.4117                 0.4087

                     16                     17                     18
                      A                      A                      A
 Frequencies --  -1026.3473              -997.0545              -936.2267
 Red. masses --      1.0595                 1.0427                 1.0672
 Frc consts  --      0.6576                 0.6107                 0.5511
 IR Inten    --      5.9024                 6.5549                 0.4888

                     19                     20                     21
                      A                      A                      A
 Frequencies --   -909.8671              -907.1120              -902.7032
 Red. masses --      1.0970                 1.1306                 1.0551
 Frc consts  --      0.5351                 0.5481                 0.5066
 IR Inten    --     11.3752                13.8281                 8.7949

                     22                     23                     24
                      A                      A                      A
 Frequencies --   -899.8649              -867.6150              -834.1233
 Red. masses --      1.1403                 1.1188                 1.0983
 Frc consts  --      0.5441                 0.4962                 0.4502
 IR Inten    --      9.7633                 2.9843                 8.9437

                     25                     26                     27
                      A                      A                      A
 Frequencies --   -823.7033              -806.9789              -751.3866
 Red. masses --      1.0955                 1.1167                 1.1054
 Frc consts  --      0.4379                 0.4285                 0.3677
 IR Inten    --      0.8586                 5.9098                10.8763

                     28                     29                     30
                      A                      A                      A
 Frequencies --   -719.7610              -716.0817              -700.3620
 Red. masses --      1.0389                 1.1437                 1.0414
 Frc consts  --      0.3171                 0.3455                 0.3010
 IR Inten    --     22.6709                 9.3310                33.1593

                     31                     32                     33
                      A                      A                      A
 Frequencies --   -659.4321              -101.1212               -80.5928
 Red. masses --      1.0470                13.8158                 8.9420
 Frc consts  --      0.2682                 0.0832                 0.0342
 IR Inten    --     26.7531                 1.2050                 0.1324

                     34                     35                     36
                      A                      A                      A
 Frequencies --    -25.6655                75.4507                90.6516
 Red. masses --     12.0198                 7.5191                 9.5962
 Frc consts  --      0.0047                 0.0252                 0.0465
 IR Inten    --      4.6022                 0.3864                 0.6349

                     37                     38                     39
                      A                      A                      A
 Frequencies --    116.2968               142.4142               149.3155
 Red. masses --      9.2797                 9.4864                 8.6201
 Frc consts  --      0.0739                 0.1134                 0.1132
 IR Inten    --      0.4223                 0.8624                 1.2874

                     40                     41                     42
                      A                      A                      A
 Frequencies --    161.5595               175.6016               179.7519
 Red. masses --     14.6908                10.1882                 9.2229
 Frc consts  --      0.2259                 0.1851                 0.1756
 IR Inten    --      1.8147                 3.9267                 1.4310

                     43                     44                     45
                      A                      A                      A
 Frequencies --    207.2529               241.7222               263.0017
 Red. masses --     11.7677                 9.5055                 9.6510
 Frc consts  --      0.2978                 0.3272                 0.3933
 IR Inten    --      6.0264                 4.0029                 3.4661

                     46                     47                     48
                      A                      A                      A
 Frequencies --    275.7066               288.8268               309.3494
 Red. masses --      9.2739                10.1890                10.8991
 Frc consts  --      0.4153                 0.5008                 0.6145
 IR Inten    --      0.6600                12.6559                 0.9132

                     49                     50                     51
                      A                      A                      A
 Frequencies --    359.5671               379.0376               420.8445
 Red. masses --      1.1913                 7.3831                10.5967
 Frc consts  --      0.0907                 0.6250                 1.1058
 IR Inten    --      2.6334                23.2765                21.0649

                     52                     53                     54
                      A                      A                      A
 Frequencies --    447.6660               466.1984               509.4913
 Red. masses --     10.3135                11.3147                12.0357
 Frc consts  --      1.2178                 1.4489                 1.8407
 IR Inten    --     21.0785                16.7284                75.3356

                     55                     56                     57
                      A                      A                      A
 Frequencies --    524.9974               533.0552               534.2937
 Red. masses --     10.7181                12.1975                10.6330
 Frc consts  --      1.7405                 2.0420                 1.7884
 IR Inten    --      8.8006                12.3936                 1.7629

                     58                     59                     60
                      A                      A                      A
 Frequencies --    536.9706               549.5643               569.0919
 Red. masses --     11.7953                11.5501                 9.7134
 Frc consts  --      2.0038                 2.0553                 1.8535
 IR Inten    --     10.4665                56.7418                 7.3341

                     61                     62                     63
                      A                      A                      A
 Frequencies --    578.4843               590.2710               628.4204
 Red. masses --      7.4792                 6.3905                 7.8513
 Frc consts  --      1.4746                 1.3119                 1.8268
 IR Inten    --     10.6418                34.3145                85.4918

                     64                     65                     66
                      A                      A                      A
 Frequencies --    635.5789               653.1511               694.2067
 Red. masses --      8.4388                12.6534                 7.7227
 Frc consts  --      2.0085                 3.1804                 2.1928
 IR Inten    --     63.6244                94.8351                33.9777

                     67                     68                     69
                      A                      A                      A
 Frequencies --    714.0167               737.8354               747.0968
 Red. masses --      7.5126                 4.6591                 4.2770
 Frc consts  --      2.2566                 1.4944                 1.4065
 IR Inten    --    102.1028                 3.5521                 1.1340

                     70                     71                     72
                      A                      A                      A
 Frequencies --    757.1166               774.9118               795.1481
 Red. masses --      4.1790                 9.3533                 9.4789
 Frc consts  --      1.4114                 3.3092                 3.5310
 IR Inten    --      1.6254                 5.6104                12.1038

                     73                     74                     75
                      A                      A                      A
 Frequencies --    808.2439               830.4817               846.2506
 Red. masses --      5.6386                 9.7312                 4.8648
 Frc consts  --      2.1702                 3.9544                 2.0526
 IR Inten    --      2.4620                46.4752                 1.9739

                     76                     77                     78
                      A                      A                      A
 Frequencies --    853.1178               909.9641               982.6006
 Red. masses --      4.7453                 4.9541                 1.0634
 Frc consts  --      2.0349                 2.4169                 0.6050
 IR Inten    --      8.2323                 4.1369                10.4487

                     79                     80                     81
                      A                      A                      A
 Frequencies --   1011.3087              1052.2538              1056.9387
 Red. masses --      1.1474                 6.5664                 6.6942
 Frc consts  --      0.6914                 4.2837                 4.4060
 IR Inten    --      8.7082                 0.4295                 1.4772

                     82                     83                     84
                      A                      A                      A
 Frequencies --   1113.8786              1129.9366              1146.6065
 Red. masses --      7.7137                 7.7514                 7.8226
 Frc consts  --      5.6388                 5.8309                 6.0594
 IR Inten    --      6.9804                 2.0204                 2.4532

                     85                     86                     87
                      A                      A                      A
 Frequencies --   1209.7641              1242.7947              1283.0970
 Red. masses --     16.1253                 8.2588                15.7409
 Frc consts  --     13.9046                 7.5156                15.2686
 IR Inten    --    161.8671                58.2097              1264.9976

                     88                     89                     90
                      A                      A                      A
 Frequencies --   1320.7255              1340.0971              1383.7713
 Red. masses --      8.1726                 8.3036                 8.5967
 Frc consts  --      8.3992                 8.7860                 9.6986
 IR Inten    --     11.6273                 2.7833                 0.3811

                     91                     92                     93
                      A                      A                      A
 Frequencies --   1412.8227              1432.3397              1457.8033
 Red. masses --     19.4222                 8.9821                 8.9408
 Frc consts  --     22.8415                10.8572                11.1951
 IR Inten    --    220.3504                 0.3425                 7.9636

                     94                     95                     96
                      A                      A                      A
 Frequencies --   1487.7960              1531.9409              1548.1111
 Red. masses --      9.3251                 9.2739                 8.9763
 Frc consts  --     12.1615                12.8232                12.6751
 IR Inten    --      4.5718                 4.4171                 2.6475

                     97                     98                     99
                      A                      A                      A
 Frequencies --   1605.2989              1666.8851              1680.1161
 Red. masses --      9.1973                10.9191                10.1656
 Frc consts  --     13.9645                17.8751                16.9068
 IR Inten    --      3.5687                 5.0618                 0.0474

                    100                    101                    102
                      A                      A                      A
 Frequencies --   1724.3926              1748.4771              1775.0620
 Red. masses --      9.8834                 9.7418                10.1829
 Frc consts  --     17.3152                17.5473                18.9037
 IR Inten    --      4.3968                 0.2589                 2.4008

                    103                    104                    105
                      A                      A                      A
 Frequencies --   1934.6266              4469.4699              4671.3016
 Red. masses --     10.0221                 1.0323                 1.1064
 Frc consts  --     22.1005                12.1497                14.2243
 IR Inten    --      2.8161                15.7004                 1.9014

                    106                    107                    108
                      A                      A                      A
 Frequencies --   4685.1739              5000.6132              5020.3422
 Red. masses --      1.1070                 1.0870                 1.0866
 Frc consts  --     14.3168                16.0156                16.1358
 IR Inten    --      2.2214                 1.9895                 0.3756

                    109                    110                    111
                      A                      A                      A
 Frequencies --   5021.1788              5023.2414              5028.2323
 Red. masses --      1.0883                 1.0881                 1.0878
 Frc consts  --     16.1664                16.1773                16.2045
 IR Inten    --      5.8937                 4.0763                 5.0815

                    112                    113                    114
                      A                      A                      A
 Frequencies --   5029.0223              5034.4972              5036.2134
 Red. masses --      1.0881                 1.0904                 1.0913
 Frc consts  --     16.2132                16.2830                16.3080
 IR Inten    --      3.7452                 0.1318                 9.2693

                    115                    116                    117
                      A                      A                      A
 Frequencies --   5037.6675              5039.9106              5043.0670
 Red. masses --      1.0895                 1.0901                 1.0902
 Frc consts  --     16.2902                16.3143                16.3361
 IR Inten    --      2.1834                 0.1225                 4.1656

                    118                    119                    120
                      A                      A                      A
 Frequencies --   5044.0007              5045.9617              5046.1709
 Red. masses --      1.0904                 1.0930                 1.0915
 Frc consts  --     16.3458                16.3970                16.3764
 IR Inten    --      5.3740                10.9760                 6.4903

 - Thermochemistry -
 -------------------
 Temperature   298.150 Kelvin.  Pressure   1.00000 Atm.
 Atom     1 has atomic number 16 and mass  31.97207

 Molecular mass:   386.04384 amu.
 Principal axes and moments of inertia in atomic units:
                           1         2         3
     Eigenvalues --  6742.92169********************
           X            0.99995   0.01022  -0.00147
           Y           -0.01021   0.99994   0.00437
           Z            0.00151  -0.00435   0.99999
 This molecule is an asymmetric top.
 Rotational symmetry number  1.
 Warning -- assumption of classical behavior for rotation
           may cause significant error
 Rotational temperatures (Kelvin)      0.01285     0.00604     0.00501
 Rotational constants (GHZ):           0.26765     0.12589     0.10440
   34 imaginary frequencies ignored.
 Zero-point vibrational energy     847060.7 (Joules/Mol)
                                  202.45236 (Kcal/Mol)
 Warning -- explicit consideration of  28 degrees of freedom as
           vibrations may cause significant error
 Vibrational temperatures:    108.56   130.43   167.33   204.90   214.83
          (Kelvin)            232.45   252.65   258.62   298.19   347.78
                              378.40   396.68   415.56   445.08   517.34
                              545.35   605.50   644.09   670.76   733.04
                              755.35   766.95   768.73   772.58   790.70
                              818.80   832.31   849.27   904.16   914.46
                              939.74   998.81  1027.31  1061.58  1074.91
                             1089.32  1114.93  1144.04  1162.88  1194.88
                             1217.57  1227.45  1309.24  1413.74  1455.05
                             1513.96  1520.70  1602.62  1625.73  1649.71
                             1740.58  1788.10  1846.09  1900.23  1928.10
                             1990.94  2032.74  2060.82  2097.45  2140.61
                             2204.12  2227.39  2309.67  2398.28  2417.31
                             2481.02  2515.67  2553.92  2783.50  6430.57
                             6720.96  6740.92  7194.77  7223.15  7224.36
                             7227.32  7234.50  7235.64  7243.52  7245.99
                             7248.08  7251.31  7255.85  7257.19  7260.01
                             7260.31

 Zero-point correction=                           0.322628 (Hartree/Particle)
 Thermal correction to Energy=                    0.338581
 Thermal correction to Enthalpy=                  0.339526
 Thermal correction to Gibbs Free Energy=         0.279130
 Sum of electronic and zero-point Energies=          -2074.037755
 Sum of electronic and thermal Energies=             -2074.021801
 Sum of electronic and thermal Enthalpies=           -2074.020857
 Sum of electronic and thermal Free Energies=        -2074.081253

                     E (Thermal)             CV                S
                      KCal/Mol        Cal/Mol-Kelvin    Cal/Mol-Kelvin
 Total                  212.463             63.930            127.114
 Electronic               0.000              0.000              0.000
 Translational            0.889              2.981             43.744
 Rotational               0.889              2.981             35.767
 Vibrational            210.686             57.969             47.602
 Vibration     1          0.599              1.965              4.006
 Vibration     2          0.602              1.956              3.646
 Vibration     3          0.608              1.936              3.161
 Vibration     4          0.616              1.911              2.771
 Vibration     5          0.618              1.903              2.681
 Vibration     6          0.622              1.890              2.531
 Vibration     7          0.628              1.872              2.375
 Vibration     8          0.629              1.867              2.331
 Vibration     9          0.641              1.830              2.068
 Vibration    10          0.658              1.776              1.790
 Vibration    11          0.670              1.741              1.642
 Vibration    12          0.677              1.718              1.560
 Vibration    13          0.685              1.694              1.481
 Vibration    14          0.699              1.656              1.366
 Vibration    15          0.734              1.556              1.124
 Vibration    16          0.749              1.515              1.043
 Vibration    17          0.783              1.425              0.889
 Vibration    18          0.807              1.366              0.803
 Vibration    19          0.824              1.325              0.748
 Vibration    20          0.865              1.229              0.635
 Vibration    21          0.880              1.195              0.598
 Vibration    22          0.888              1.177              0.580
 Vibration    23          0.889              1.174              0.578
 Vibration    24          0.892              1.168              0.572
 Vibration    25          0.905              1.141              0.545
 Vibration    26          0.925              1.098              0.506
 Vibration    27          0.935              1.078              0.488
 Vibration    28          0.948              1.053              0.467

 Normal termination of Gaussian 16 at Mon Mar  6 12:08:57 2023.
