 Gaussian 16, Revision C.01,
 Gaussian 16:  ES64L-G16RevC.01  3-Jul-2019

 ----------------------------------------------------------------------
 #p pop=(regular,nbo,savenbos) freq=noraman def2svp empiricaldispersion
 =gd3bj output=wfx pbe1pbe
 ----------------------------------------------------------------------

 ----------------------------------------
 POGPIL_Complex_4_Ligand_0_NN_Cu_oriented
 ----------------------------------------
 Symbolic Z-matrix:
 Charge =  0 Multiplicity = 1

                         Standard orientation:
 ---------------------------------------------------------------------
 Center     Atomic      Atomic             Coordinates (Angstroms)
 Number     Number       Type             X           Y           Z
 ---------------------------------------------------------------------
      1          7           0       -1.129143   -0.756390   -0.295611
      2          7           0        1.129143    0.756390   -0.295611
      3          1           0       -1.812038   -0.195327   -0.196425
      4          1           0        1.812038    0.195327   -0.196425
      5          6           0       -0.340732   -0.670889    0.967179
      6          1           0        0.350234   -1.363821    0.943880
      7          6           0       -1.174569   -0.872267    2.225310
      8          1           0       -1.913550   -0.242369    2.227307
      9          1           0       -1.545834   -1.768737    2.225309
     10          6           0        0.340732    0.670889    0.967179
     11          1           0       -0.350234    1.363821    0.943880
     12          6           0        1.174569    0.872267    2.225310
     13          1           0        1.913550    0.242369    2.227307
     14          1           0        1.545834    1.768737    2.225309
     15          6           0       -0.337796   -0.672566    3.476783
     16          6           0        0.337796    0.672566    3.476783
     17          1           0       -0.906927   -0.746868    4.258954
     18          1           0        0.906927    0.746868    4.258954
     19          1           0        0.333843   -1.369791    3.528040
     20          1           0       -0.333843    1.369791    3.528040
     21          6           0        1.729492    2.088538   -0.566541
     22          1           0        2.318795    2.014089   -1.333402
     23          1           0        2.271930    2.346749    0.195660
     24          6           0        0.726268    3.169905   -0.832147
     25          6           0        0.519405    4.181971    0.090482
     26          1           0        0.954044    4.158309    0.912594
     27          6           0       -0.340732    5.236030   -0.210404
     28          1           0       -0.480288    5.913726    0.411339
     29          6           0       -0.975119    5.276435   -1.413948
     30          1           0       -1.527713    5.994586   -1.616980
     31          6           0       -0.810374    4.281530   -2.319936
     32          1           0       -1.270298    4.303536   -3.128068
     33          6           0        0.046838    3.231440   -2.033029
     34          1           0        0.167997    2.555055   -2.661429
     35          6           0       -1.729492   -2.088538   -0.566541
     36          1           0       -2.318795   -2.014089   -1.333402
     37          1           0       -2.271930   -2.346749    0.195660
     38          6           0       -0.726268   -3.169905   -0.832147
     39          6           0       -0.519405   -4.181971    0.090482
     40          1           0       -0.954044   -4.158309    0.912594
     41          6           0        0.340732   -5.236030   -0.210404
     42          1           0        0.480288   -5.913726    0.411339
     43          6           0        0.975119   -5.276435   -1.413948
     44          1           0        1.527713   -5.994586   -1.616980
     45          6           0        0.810374   -4.281530   -2.319936
     46          1           0        1.270298   -4.303536   -3.128068
     47          6           0       -0.046838   -3.231440   -2.033029
     48          1           0       -0.167997   -2.555055   -2.661429
 ---------------------------------------------------------------------

 SCF Done:  E(RPBE1PBE) =  -885.172468291     A.U. after   14 cycles

 The electronic state is 1-A.
 Alpha  occ. eigenvalues --  -14.34146 -14.34142 -10.22752 -10.22733 -10.22624
 Alpha  occ. eigenvalues --  -10.22624 -10.22089 -10.22088 -10.21062 -10.21062
 Alpha  occ. eigenvalues --  -10.20909 -10.20909 -10.20715 -10.20715 -10.20575
 Alpha  occ. eigenvalues --  -10.20575 -10.20381 -10.20381 -10.19421 -10.19406
 Alpha  occ. eigenvalues --  -10.19262 -10.19261  -0.93863  -0.91147  -0.88019
 Alpha  occ. eigenvalues --   -0.87626  -0.85095  -0.79429  -0.78868  -0.77141
 Alpha  occ. eigenvalues --   -0.77075  -0.76775  -0.75163  -0.69646  -0.69206
 Alpha  occ. eigenvalues --   -0.64634  -0.64328  -0.64224  -0.63310  -0.61007
 Alpha  occ. eigenvalues --   -0.60704  -0.60637  -0.55415  -0.55364  -0.52578
 Alpha  occ. eigenvalues --   -0.50211  -0.49681  -0.49386  -0.49033  -0.48749
 Alpha  occ. eigenvalues --   -0.48173  -0.46524  -0.46091  -0.45755  -0.44673
 Alpha  occ. eigenvalues --   -0.44652  -0.43698  -0.42961  -0.42579  -0.41793
 Alpha  occ. eigenvalues --   -0.41180  -0.39587  -0.38729  -0.37634  -0.37368
 Alpha  occ. eigenvalues --   -0.37248  -0.36526  -0.36086  -0.35960  -0.34932
 Alpha  occ. eigenvalues --   -0.34853  -0.33911  -0.33402  -0.32044  -0.26042
 Alpha  occ. eigenvalues --   -0.26031  -0.25673  -0.25620  -0.23068  -0.20318
 Alpha virt. eigenvalues --    0.00235   0.00321   0.00867   0.00873   0.07420
 Alpha virt. eigenvalues --    0.08852   0.09419   0.09990   0.11274   0.11702
 Alpha virt. eigenvalues --    0.12496   0.12678   0.13371   0.14342   0.14895

 Mulliken charges:
               1
     1  N   -0.225652
     2  N   -0.225652
     3  H    0.051795
     4  H    0.051795
     5  C    0.024400
     6  H   -0.044325
     7  C    0.142411
     8  H   -0.045518
     9  H   -0.030941
    10  C    0.024400
    11  H   -0.044325
    12  C    0.142411
    13  H   -0.045518
    14  H   -0.030941
    15  C    0.087384
    16  C    0.087384
    17  H   -0.031563
    18  H   -0.031563
    19  H   -0.034442
    20  H   -0.034442
    21  C    0.385992
    22  H   -0.033688
    23  H   -0.069899
    24  C   -0.136407
    25  C    0.079126
    26  H   -0.122021
    27  C    0.101818
    28  H   -0.101110
    29  C    0.102441
    30  H   -0.099345
    31  C    0.101687
    32  H   -0.098756
    33  C    0.105508
    34  H   -0.108895
    35  C    0.385992
    36  H   -0.033688
    37  H   -0.069899
    38  C   -0.136407
    39  C    0.079126
    40  H   -0.122021
    41  C    0.101818
    42  H   -0.101110
    43  C    0.102441
    44  H   -0.099345
    45  C    0.101687
    46  H   -0.098756
    47  C    0.105508
    48  H   -0.108895
 Sum of Mulliken charges =  -0.00000

 Dipole moment (field-independent basis, Debye):
    X=              0.0000    Y=             -0.0000    Z=              1.6750  Tot=              1.6750
 Quadrupole moment (field-independent basis, Debye-Ang):
   XX=           -124.8940   YY=           -128.2152   ZZ=           -124.4330
   XY=             -3.8312   XZ=             -0.0000   YZ=              0.0000

  Exact polarizability:     154.863     -26.849     221.611      -0.000       0.000     196.766
 Approx polarizability:     242.619     -49.731     294.848      -0.000      -0.000     299.478

 Summary of Natural Population Analysis:

                                       Natural Population
                Natural  -----------------------------------------------
    Atom  No    Charge         Core      Valence    Rydberg      Total
 -----------------------------------------------------------------------
      N    1   -0.64992      1.99936     5.63035    0.02021     7.64992
      N    2   -0.64992      1.99936     5.63035    0.02021     7.64992
      H    3    0.31841      0.00000     0.67477    0.00682     0.68159
      H    4    0.31841      0.00000     0.67477    0.00682     0.68159
      C    5   -0.00319      1.99894     3.98402    0.02023     6.00319
      H    6    0.18002      0.00000     0.81470    0.00528     0.81998
      C    7   -0.38870      1.99905     4.37539    0.01426     6.38870
      H    8    0.18026      0.00000     0.81516    0.00458     0.81974
      H    9    0.18996      0.00000     0.80651    0.00353     0.81004
      C   10   -0.00319      1.99894     3.98402    0.02023     6.00319
      H   11    0.18002      0.00000     0.81470    0.00528     0.81998
      C   12   -0.38870      1.99905     4.37539    0.01426     6.38870
      H   13    0.18026      0.00000     0.81516    0.00458     0.81974
      H   14    0.18996      0.00000     0.80651    0.00353     0.81004
      C   15   -0.35710      1.99910     4.34533    0.01266     6.35710
      C   16   -0.35710      1.99910     4.34533    0.01266     6.35710
      H   17    0.19007      0.00000     0.80624    0.00370     0.80993
      H   18    0.19007      0.00000     0.80624    0.00370     0.80993
      H   19    0.17887      0.00000     0.81699    0.00414     0.82113
      H   20    0.17887      0.00000     0.81699    0.00414     0.82113
      C   21   -0.16329      1.99895     4.14673    0.01760     6.16329
      H   22    0.19305      0.00000     0.80402    0.00293     0.80695
      H   23    0.15885      0.00000     0.83651    0.00465     0.84115
      C   24   -0.03778      1.99901     4.02207    0.01670     6.03778
      C   25   -0.17801      1.99899     4.16414    0.01488     6.17801
      H   26    0.16772      0.00000     0.82915    0.00313     0.83228
      C   27   -0.16203      1.99910     4.14849    0.01444     6.16203
      H   28    0.16795      0.00000     0.82897    0.00308     0.83205
      C   29   -0.17819      1.99909     4.16498    0.01412     6.17819
      H   30    0.16795      0.00000     0.82877    0.00327     0.83205
      C   31   -0.16059      1.99910     4.14729    0.01421     6.16059
      H   32    0.16910      0.00000     0.82781    0.00309     0.83090
      C   33   -0.15777      1.99898     4.14293    0.01586     6.15777
      H   34    0.17438      0.00000     0.82183    0.00379     0.82562
      C   35   -0.16329      1.99895     4.14673    0.01760     6.16329
      H   36    0.19305      0.00000     0.80402    0.00293     0.80695
      H   37    0.15885      0.00000     0.83651    0.00465     0.84115
      C   38   -0.03778      1.99901     4.02207    0.01670     6.03778
      C   39   -0.17801      1.99899     4.16414    0.01488     6.17801
      H   40    0.16772      0.00000     0.82915    0.00313     0.83228
      C   41   -0.16203      1.99910     4.14849    0.01444     6.16203
      H   42    0.16795      0.00000     0.82897    0.00308     0.83205
      C   43   -0.17819      1.99909     4.16498    0.01412     6.17819
      H   44    0.16795      0.00000     0.82877    0.00327     0.83205
      C   45   -0.16059      1.99910     4.14729    0.01421     6.16059
      H   46    0.16910      0.00000     0.82781    0.00309     0.83090
      C   47   -0.15777      1.99898     4.14293    0.01586     6.15777
      H   48    0.17438      0.00000     0.82183    0.00379     0.82562
 =======================================================================
   * Total *   -0.00000     43.97936   115.56630    0.45434   160.00000

 ******   44 imaginary frequencies (negative Signs) ******

                      1                      2                      3
                      A                      B                      A
 Frequencies --  -1467.6178             -1464.8948             -1464.3760
 Red. masses --      1.0820                 1.0825                 1.0865
 Frc consts  --      1.3732                 1.3686                 1.3728
 IR Inten    --     76.8872               164.3537                39.8002

                      4                      5                      6
                      B                      A                      B
 Frequencies --  -1454.7976             -1364.4234             -1359.6715
 Red. masses --      1.0862                 1.0402                 1.0543
 Frc consts  --      1.3545                 1.1409                 1.1484
 IR Inten    --     92.9757                 0.4403                 0.0958

                      7                      8                      9
                      B                      A                      A
 Frequencies --  -1310.3760             -1309.9325             -1242.5105
 Red. masses --      1.0340                 1.0338                 1.0197
 Frc consts  --      1.0461                 1.0452                 0.9275
 IR Inten    --      4.5977                 1.6700                 0.1140

                     10                     11                     12
                      B                      B                      A
 Frequencies --  -1242.4502             -1166.3555             -1166.3249
 Red. masses --      1.0198                 1.0365                 1.0364
 Frc consts  --      0.9275                 0.8307                 0.8307
 IR Inten    --      0.0045                 0.9841                 0.4040

                     13                     14                     15
                      B                      A                      B
 Frequencies --  -1110.5141             -1082.9093             -1061.0706
 Red. masses --      1.0438                 1.0218                 1.0260
 Frc consts  --      0.7585                 0.7060                 0.6806
 IR Inten    --      4.8744                 0.9740                 4.5709

                     16                     17                     18
                      A                      B                      A
 Frequencies --  -1051.3297             -1047.8580             -1040.5100
 Red. masses --      1.0270                 1.0392                 1.0277
 Frc consts  --      0.6688                 0.6723                 0.6555
 IR Inten    --      2.0689                 0.0171                 2.6234

                     19                     20                     21
                      A                      B                      A
 Frequencies --   -929.7250              -929.5906              -900.7947
 Red. masses --      1.0651                 1.0652                 1.1541
 Frc consts  --      0.5425                 0.5423                 0.5518
 IR Inten    --      1.2586                 0.4975                 0.1329

                     22                     23                     24
                      B                      A                      B
 Frequencies --   -900.6929              -833.4757              -827.9746
 Red. masses --      1.1541                 1.1107                 1.1071
 Frc consts  --      0.5516                 0.4546                 0.4472
 IR Inten    --      0.2826                10.9630                 5.2925

                     25                     26                     27
                      A                      B                      A
 Frequencies --   -749.2370              -737.2761              -709.7964
 Red. masses --      1.0930                 1.1290                 1.1404
 Frc consts  --      0.3615                 0.3616                 0.3385
 IR Inten    --     11.1995                 2.0508                 1.1900

                     28                     29                     30
                      B                      A                      B
 Frequencies --   -708.2190              -695.0315              -694.0126
 Red. masses --      1.1481                 1.0868                 1.1227
 Frc consts  --      0.3393                 0.3093                 0.3186
 IR Inten    --     29.4831                10.5199                18.4520

                     31                     32                     33
                      B                      A                      A
 Frequencies --   -572.2491              -569.5469              -525.4314
 Red. masses --      1.1450                 1.2775                 1.2068
 Frc consts  --      0.2209                 0.2442                 0.1963
 IR Inten    --      0.7585                 1.2421                 0.3925

                     34                     35                     36
                      B                      B                      A
 Frequencies --   -518.2179              -465.1217              -421.8108
 Red. masses --      1.3932                 1.4182                 1.8271
 Frc consts  --      0.2204                 0.1808                 0.1915
 IR Inten    --      0.1882                 3.6985                 1.1128

                     37                     38                     39
                      B                      A                      B
 Frequencies --   -378.7740              -372.0071              -328.8288
 Red. masses --      1.6880                 1.5273                 1.4511
 Frc consts  --      0.1427                 0.1245                 0.0924
 IR Inten    --      3.8694                 0.3037                 0.3153

                     40                     41                     42
                      B                      A                      B
 Frequencies --   -317.6454              -295.4363              -190.6229
 Red. masses --      1.4030                 2.4162                 1.6012
 Frc consts  --      0.0834                 0.1243                 0.0343
 IR Inten    --      6.7169                 2.1162                 1.3649

                     43                     44                     45
                      B                      A                      A
 Frequencies --    -97.8181               -91.0269                46.9196
 Red. masses --      2.8691                 1.5698                 2.6688
 Frc consts  --      0.0162                 0.0077                 0.0035
 IR Inten    --      2.3123                 2.8869                 2.2302

                     46                     47                     48
                      B                      A                      A
 Frequencies --    161.5485               169.2776               237.8251
 Red. masses --      7.5975                 8.7252                 4.4957
 Frc consts  --      0.1168                 0.1473                 0.1498
 IR Inten    --      0.5511                 0.0018                 0.0130

                     49                     50                     51
                      B                      A                      B
 Frequencies --    318.8534               342.2864               352.3493
 Red. masses --      5.3021                 3.9707                 3.0408
 Frc consts  --      0.3176                 0.2741                 0.2224
 IR Inten    --      1.4148                 0.7908                 0.5693

                     52                     53                     54
                      A                      A                      B
 Frequencies --    400.1854               446.8989               460.3339
 Red. masses --      3.3145                 3.6971                 4.5719
 Frc consts  --      0.3127                 0.4350                 0.5708
 IR Inten    --      1.5099                 0.0551                 2.8126

                     55                     56                     57
                      A                      B                      B
 Frequencies --    486.5106               493.7777               540.1591
 Red. masses --      3.2057                 2.7136                10.4858
 Frc consts  --      0.4471                 0.3898                 1.8026
 IR Inten    --      0.0644                 0.8361                 0.1311

                     58                     59                     60
                      A                      A                      B
 Frequencies --    540.2509               643.8091               663.8601
 Red. masses --     10.4927                 1.7211                 2.4975
 Frc consts  --      1.8044                 0.4203                 0.6485
 IR Inten    --      0.0397                 1.0620                 2.3665

                     61                     62                     63
                      A                      B                      A
 Frequencies --    669.5686               683.0624               691.0021
 Red. masses --      1.5111                 4.0521                 3.4387
 Frc consts  --      0.3991                 1.1139                 0.9674
 IR Inten    --      0.0563                 5.7965                 0.0514

                     64                     65                     66
                      A                      B                      B
 Frequencies --    713.0922               719.1948               733.0114
 Red. masses --      2.9050                 3.9848                 1.8878
 Frc consts  --      0.8703                 1.2144                 0.5976
 IR Inten    --      0.4507                 0.7734                 0.2872

                     67                     68                     69
                      A                      B                      A
 Frequencies --    741.6476               763.0067               763.2277
 Red. masses --      2.3367                 4.1717                 4.3561
 Frc consts  --      0.7573                 1.4309                 1.4950
 IR Inten    --      0.1623                 2.5325                 4.4954

                     70                     71                     72
                      B                      A                      B
 Frequencies --    790.9092               792.5053               801.1847
 Red. masses --      3.1767                 2.8345                 2.8850
 Frc consts  --      1.1708                 1.0489                 1.0911
 IR Inten    --     16.1840                 5.3558                24.5591

                     73                     74                     75
                      A                      B                      A
 Frequencies --    825.3441               840.7049               843.3343
 Red. masses --      3.0703                 6.4387                 3.2153
 Frc consts  --      1.2322                 2.6812                 1.3473
 IR Inten    --     10.2372                 3.5242                 0.0057

                     76                     77                     78
                      B                      A                      A
 Frequencies --    861.6035               882.6141               905.6236
 Red. masses --      2.3251                 2.1871                 3.0164
 Frc consts  --      1.0170                 1.0039                 1.4576
 IR Inten    --      0.1103                10.1003                 6.6333

                     79                     80                     81
                      B                      B                      A
 Frequencies --    913.5117               933.8400               949.1340
 Red. masses --      2.6054                 4.1226                 3.5782
 Frc consts  --      1.2810                 2.1182                 1.8992
 IR Inten    --      1.1167                 3.6649                 0.0528

                     82                     83                     84
                      B                      A                      B
 Frequencies --    964.1729               973.0764               976.5804
 Red. masses --      2.5150                 1.1728                 1.2424
 Frc consts  --      1.3775                 0.6543                 0.6981
 IR Inten    --     20.6129                 1.0786                15.1969

                     85                     86                     87
                      A                      B                      A
 Frequencies --   1002.3042              1008.9417              1013.5510
 Red. masses --      1.3886                 1.3176                 1.4931
 Frc consts  --      0.8219                 0.7903                 0.9037
 IR Inten    --      5.6541                 0.6809                 6.6820

                     88                     89                     90
                      B                      A                      B
 Frequencies --   1028.9591              1046.6105              1062.9704
 Red. masses --      1.4367                 2.6225                 5.8940
 Frc consts  --      0.8962                 1.6925                 3.9238
 IR Inten    --     16.9820                 2.1085                 0.9116

                     91                     92                     93
                      A                      B                      A
 Frequencies --   1066.9927              1102.4639              1108.4232
 Red. masses --      5.6812                 2.9427                 2.7957
 Frc consts  --      3.8108                 2.1073                 2.0237
 IR Inten    --      0.5927                32.4588                 0.0183

                     94                     95                     96
                      B                      A                      B
 Frequencies --   1140.3093              1151.0927              1157.6564
 Red. masses --      3.7588                 3.9582                 3.0131
 Frc consts  --      2.8797                 3.0901                 2.3792
 IR Inten    --      2.7753                32.3519                40.6117

                     97                     98                     99
                      A                      B                      A
 Frequencies --   1196.9396              1203.6558              1241.1109
 Red. masses --      4.4218                 6.2258                 5.7113
 Frc consts  --      3.7325                 5.3144                 5.1833
 IR Inten    --      3.1512                 1.9453                 1.0898

                    100                    101                    102
                      A                      B                      A
 Frequencies --   1250.2487              1250.8862              1320.5003
 Red. masses --      7.3736                 7.3081                 6.8473
 Frc consts  --      6.7908                 6.7374                 7.0347
 IR Inten    --      0.9547                 2.5849                 0.5179

                    103                    104                    105
                      B                      A                      A
 Frequencies --   1372.5909              1372.6148              1494.5377
 Red. masses --      8.2128                 8.2284                 8.9730
 Frc consts  --      9.1164                 9.1340                11.8087
 IR Inten    --      0.2981                 0.0003                 0.0306

                    106                    107                    108
                      B                      B                      A
 Frequencies --   1494.5932              1503.1234              1503.1441
 Red. masses --      8.9676                 8.1944                 8.1978
 Frc consts  --     11.8025                10.9083                10.9132
 IR Inten    --      1.7242                 0.4711                 0.0767

                    109                    110                    111
                      B                      A                      B
 Frequencies --   1680.2724              1680.2783              1749.8623
 Red. masses --     10.6290                10.6292                 9.8295
 Frc consts  --     17.6808                17.6812                17.7333
 IR Inten    --      4.6102                 0.3592                 0.0274

                    112                    113                    114
                      A                      A                      B
 Frequencies --   1749.8759              4371.4641              4379.1122
 Red. masses --      9.8298                 1.0876                 1.0871
 Frc consts  --     17.7341                12.2452                12.2825
 IR Inten    --      0.1815                 0.0009                12.0030

                    115                    116                    117
                      B                      A                      B
 Frequencies --   4407.8130              4408.0035              4410.7916
 Red. masses --      1.0604                 1.0603                 1.0601
 Frc consts  --     12.1380                12.1389                12.1516
 IR Inten    --     13.5328                 2.8129                61.6200

                    118                    119                    120
                      A                      B                      A
 Frequencies --   4411.0834              4418.8080              4423.2177
 Red. masses --      1.0600                 1.0600                 1.0614
 Frc consts  --     12.1521                12.1950                12.2349
 IR Inten    --      0.3211                14.6927                23.0043

                    121                    122                    123
                      A                      B                      A
 Frequencies --   4528.8303              4529.0312              4531.0024
 Red. masses --      1.1085                 1.1084                 1.1083
 Frc consts  --     13.3953                13.3954                13.4061
 IR Inten    --      2.9175                 4.2480                 8.4347

                    124                    125                    126
                      B                      A                      B
 Frequencies --   4531.3651              4538.2017              4544.6391
 Red. masses --      1.1083                 1.1087                 1.1081
 Frc consts  --     13.4086                13.4531                13.4842
 IR Inten    --     17.4498                 4.6295                17.1043

                    127                    128                    129
                      B                      A                      B
 Frequencies --   5016.6125              5016.6194              5023.5236
 Red. masses --      1.0882                 1.0882                 1.0874
 Frc consts  --     16.1355                16.1355                16.1687
 IR Inten    --      0.0635                 0.0247                 0.6848

                    130                    131                    132
                      A                      A                      B
 Frequencies --   5023.5260              5032.0590              5032.0602
 Red. masses --      1.0874                 1.0892                 1.0892
 Frc consts  --     16.1687                16.2493                16.2494
 IR Inten    --      0.1396                 0.0001                 0.2368

                    133                    134                    135
                      B                      A                      B
 Frequencies --   5034.7370              5034.7382              5052.4785
 Red. masses --      1.0906                 1.0906                 1.0921
 Frc consts  --     16.2878                16.2879                16.4262
 IR Inten    --      0.2480                 1.5711                 2.1132

                    136                    137                    138
                      A                      A                      B
 Frequencies --   5052.4799              5340.6061              5340.7812
 Red. masses --      1.0921                 1.0751                 1.0752
 Frc consts  --     16.4262                18.0672                18.0691
 IR Inten    --      0.0803                 0.1404                 7.3071

 - Thermochemistry -
 -------------------
 Temperature   298.150 Kelvin.  Pressure   1.00000 Atm.
 Atom     1 has atomic number  7 and mass  14.00307

 Molecular mass:   294.20960 amu.
 Principal axes and moments of inertia in atomic units:
                           1         2         3
     Eigenvalues --  4010.16875********************
           X            0.00283   0.00000   1.00000
           Y            1.00000   0.00000  -0.00283
           Z           -0.00000   1.00000  -0.00000
 This molecule is an asymmetric top.
 Rotational symmetry number  2.
 Warning -- assumption of classical behavior for rotation
           may cause significant error
 Rotational temperatures (Kelvin)      0.02160     0.00722     0.00612
 Rotational constants (GHZ):           0.45004     0.15040     0.12747
   44 imaginary frequencies ignored.
 Zero-point vibrational energy    1109081.2 (Joules/Mol)
                                  265.07676 (Kcal/Mol)
 Warning -- explicit consideration of  14 degrees of freedom as
           vibrations may cause significant error
 Vibrational temperatures:     67.51   232.43   243.55   342.18   458.76
          (Kelvin)            492.47   506.95   575.78   642.99   662.32
                              699.98   710.44   777.17   777.30   926.30
                              955.15   963.36   982.77   994.20  1025.98
                             1034.76  1054.64  1067.07  1097.80  1098.11
                             1137.94  1140.24  1152.73  1187.49  1209.59
                             1213.37  1239.66  1269.88  1302.99  1314.34
                             1343.59  1365.59  1387.23  1400.04  1405.08
                             1442.09  1451.64  1458.27  1480.44  1505.84
                             1529.38  1535.16  1586.20  1594.77  1640.65
                             1656.17  1665.61  1722.13  1731.79  1785.68
                             1798.83  1799.75  1899.91  1974.85  1974.89
                             2150.31  2150.39  2162.66  2162.69  2417.54
                             2417.55  2517.66  2517.68  6289.56  6300.57
                             6341.86  6342.13  6346.15  6346.57  6357.68
                             6364.02  6515.98  6516.27  6519.10  6519.62
                             6529.46  6538.72  7217.79  7217.80  7227.73
                             7227.73  7240.01  7240.01  7243.86  7243.87
                             7269.39  7269.39  7683.94  7684.19

 Zero-point correction=                           0.422427 (Hartree/Particle)
 Thermal correction to Energy=                    0.433219
 Thermal correction to Enthalpy=                  0.434164
 Thermal correction to Gibbs Free Energy=         0.384916
 Sum of electronic and zero-point Energies=           -884.750042
 Sum of electronic and thermal Energies=              -884.739249
 Sum of electronic and thermal Enthalpies=            -884.738305
 Sum of electronic and thermal Free Energies=         -884.787552

                     E (Thermal)             CV                S
                      KCal/Mol        Cal/Mol-Kelvin    Cal/Mol-Kelvin
 Total                  271.849             49.666            103.649
 Electronic               0.000              0.000              0.000
 Translational            0.889              2.981             42.935
 Rotational               0.889              2.981             33.498
 Vibrational            270.072             43.705             27.216
 Vibration     1          0.595              1.979              4.943
 Vibration     2          0.622              1.890              2.532
 Vibration     3          0.625              1.880              2.443
 Vibration     4          0.656              1.783              1.819
 Vibration     5          0.705              1.638              1.316
 Vibration     6          0.721              1.591              1.201
 Vibration     7          0.729              1.570              1.156
 Vibration     8          0.766              1.470              0.962
 Vibration     9          0.806              1.368              0.805
 Vibration    10          0.818              1.338              0.765
 Vibration    11          0.843              1.280              0.693
 Vibration    12          0.849              1.264              0.674
 Vibration    13          0.895              1.161              0.565
 Vibration    14          0.895              1.161              0.565

 1\1\GINC-JST363\Freq\RPBE1PBE\def2SVP\C20H26N2\LAPLAZA\04-Mar-2023\0\\
 #p pop=(regular,nbo,savenbos) freq=noraman def2svp empiricaldispersion
 =gd3bj output=wfx pbe1pbe\\POGPIL_Complex_4_Ligand_0_NN_Cu_oriented\\0
 ,1\N,2.01416743,-0.09214337,0.\N,0.0921433459,-2.0141675631,-0.0000000
 571\H,2.26468761,0.01810681,-0.84620323\H,-0.0181068399,-2.2646877294,
 0.8462031762\C,2.41027423,-1.48189057,0.36775216\H,2.26056985,-1.59864
 595,1.32800626\C,3.86901638,-1.80241442,0.07099056\H,4.05667277,-1.617
 58203,-0.86361623\H,4.43992014,-1.23150966,0.60916571\C,1.4818905771,-

 Normal termination of Gaussian 16 at Sat Mar  4 12:46:22 2023.
