 Gaussian 16, Revision C.01,
 Gaussian 16:  ES64L-G16RevC.01  3-Jul-2019

 ----------------------------------------------------------------------
 #p pop=(regular,nbo,savenbos) freq=noraman def2svp empiricaldispersion
 =gd3bj output=wfx pbe1pbe
 ----------------------------------------------------------------------

 ----------------------------------------
 POLWOC_Complex_0_Ligand_1_ON_Cu_oriented
 ----------------------------------------
 Symbolic Z-matrix:
 Charge = -1 Multiplicity = 1

                         Standard orientation:
 ---------------------------------------------------------------------
 Center     Atomic      Atomic             Coordinates (Angstroms)
 Number     Number       Type             X           Y           Z
 ---------------------------------------------------------------------
      1          6           0       -0.278168    0.820626   -0.263518
      2          6           0        0.337051    2.151501    0.035199
      3          6           0        1.765444    1.975062   -0.294689
      4          6           0        1.927387    0.584543   -0.844515
      5          7           0        0.584957   -0.020703   -0.775937
      6          6           0        2.953758   -0.183931   -0.097672
      7          8           0        3.985283    0.256575    0.130453
      8          8           0        2.628414   -1.359688    0.259776
      9          6           0        3.588559   -2.168119    0.937232
     10          1           0       -0.057650    2.840963   -0.502746
     11          1           0        2.033137    2.640832   -0.932496
     12          1           0        2.297726    2.060406    0.498977
     13          1           0        2.232425    0.615667   -1.754010
     14          1           0        3.191410   -3.006165    1.184528
     15          1           0        3.875414   -1.703415    1.727712
     16          1           0        4.344201   -2.327141    0.368754
     17          8           0       -1.627283   -1.695098   -0.716135
     18          6           0       -2.213564   -0.703628   -0.253651
     19          6           0       -1.619076    0.556890   -0.016127
     20          8           0       -3.501998   -0.791514    0.091560
     21          6           0       -4.095994   -2.105733    0.063291
     22          1           0       -5.020464   -2.040424    0.316743
     23          1           0       -3.637624   -2.683253    0.676816
     24          1           0       -4.031921   -2.464529   -0.823962
     25          6           0       -2.420785    1.608119    0.541047
     26          7           0       -3.013053    2.478879    0.963242
     27          1           0        0.227017    2.365632    0.963733
 ---------------------------------------------------------------------

 SCF Done:  E(RPBE1PBE) =  -796.469627676     A.U. after   15 cycles

 The electronic state is 1-A.
 Alpha  occ. eigenvalues --  -19.13151 -19.08974 -19.06535 -18.99882 -14.19782
 Alpha  occ. eigenvalues --  -14.18621 -10.21527 -10.17534 -10.15506 -10.12184
 Alpha  occ. eigenvalues --  -10.10680 -10.10428 -10.09378 -10.06753 -10.06270
 Alpha  occ. eigenvalues --  -10.06053  -1.04249  -0.95585  -0.93622  -0.83418
 Alpha  occ. eigenvalues --   -0.79816  -0.75280  -0.69079  -0.66762  -0.65313
 Alpha  occ. eigenvalues --   -0.63804  -0.58716  -0.52266  -0.48413  -0.46404
 Alpha  occ. eigenvalues --   -0.43469  -0.42028  -0.40623  -0.40068  -0.38925
 Alpha  occ. eigenvalues --   -0.37236  -0.36606  -0.36213  -0.34151  -0.33876
 Alpha  occ. eigenvalues --   -0.32188  -0.29406  -0.28020  -0.27416  -0.26491
 Alpha  occ. eigenvalues --   -0.24757  -0.24099  -0.23437  -0.21400  -0.20892
 Alpha  occ. eigenvalues --   -0.20544  -0.20057  -0.18611  -0.17790  -0.15524
 Alpha  occ. eigenvalues --   -0.13675  -0.11516  -0.07452  -0.04029
 Alpha virt. eigenvalues --    0.16649   0.17635   0.19032   0.20761   0.21465
 Alpha virt. eigenvalues --    0.21697   0.22755   0.23275   0.24187   0.25253
 Alpha virt. eigenvalues --    0.26092   0.26312   0.27325   0.27532   0.28099

 Mulliken charges:
               1
     1  C   -0.211804
     2  C    0.281776
     3  C    0.170443
     4  C    0.065881
     5  N   -0.254690
     6  C    0.146857
     7  O   -0.253826
     8  O   -0.270039
     9  C    0.362352
    10  H   -0.040099
    11  H   -0.063239
    12  H   -0.063029
    13  H   -0.045588
    14  H   -0.018925
    15  H   -0.029615
    16  H   -0.033425
    17  O   -0.334685
    18  C    0.215667
    19  C   -0.243332
    20  O   -0.373927
    21  C    0.382309
    22  H   -0.045196
    23  H   -0.038860
    24  H   -0.037550
    25  C   -0.130986
    26  N   -0.093436
    27  H   -0.043035
 Sum of Mulliken charges =  -1.00000

 Dipole moment (field-independent basis, Debye):
    X=              5.2130    Y=             -3.5574    Z=              0.6125  Tot=              6.3407
 Quadrupole moment (field-independent basis, Debye-Ang):
   XX=           -124.6481   YY=           -105.0521   ZZ=            -94.1519
   XY=              9.2204   XZ=              5.7388   YZ=            -11.0766

  Exact polarizability:     155.499      -1.686     129.288     -11.232       6.855      79.415
 Approx polarizability:     195.311     -17.590     187.417     -24.104      23.115     120.584

 Summary of Natural Population Analysis:

                                       Natural Population
                Natural  -----------------------------------------------
    Atom  No    Charge         Core      Valence    Rydberg      Total
 -----------------------------------------------------------------------
      C    1    0.27882      1.99906     3.69263    0.02949     5.72118
      C    2   -0.40565      1.99905     4.39378    0.01282     6.40565
      C    3   -0.37099      1.99910     4.35701    0.01488     6.37099
      C    4   -0.09271      1.99892     4.06976    0.02403     6.09271
      N    5   -0.56930      1.99932     5.55333    0.01665     7.56930
      C    6    0.86484      1.99924     3.07678    0.05915     5.13516
      O    7   -0.65777      1.99969     6.64445    0.01362     8.65777
      O    8   -0.53007      1.99957     6.51901    0.01149     8.53007
      C    9   -0.14948      1.99890     4.13789    0.01270     6.14948
      H   10    0.19240      0.00000     0.80375    0.00385     0.80760
      H   11    0.17950      0.00000     0.81685    0.00365     0.82050
      H   12    0.18395      0.00000     0.81153    0.00452     0.81605
      H   13    0.18223      0.00000     0.81294    0.00483     0.81777
      H   14    0.16361      0.00000     0.83440    0.00199     0.83639
      H   15    0.15792      0.00000     0.83806    0.00402     0.84208
      H   16    0.15365      0.00000     0.84255    0.00380     0.84635
      O   17   -0.68510      1.99975     6.67660    0.00875     8.68510
      C   18    0.80701      1.99911     3.14157    0.05230     5.19299
      C   19   -0.46764      1.99865     4.44894    0.02005     6.46764
      O   20   -0.58798      1.99964     6.57911    0.00923     8.58798
      C   21   -0.14279      1.99889     4.13229    0.01161     6.14279
      H   22    0.14973      0.00000     0.84793    0.00233     0.85027
      H   23    0.15293      0.00000     0.84309    0.00399     0.84707
      H   24    0.15667      0.00000     0.83854    0.00479     0.84333
      C   25    0.32903      1.99924     3.63131    0.04041     5.67097
      N   26   -0.48639      1.99955     5.46108    0.02575     7.48639
      H   27    0.19357      0.00000     0.80244    0.00398     0.80643
 =======================================================================
   * Total *   -1.00000     31.98767    85.60765    0.40468   118.00000

 ******   18 imaginary frequencies (negative Signs) ******

                      1                      2                      3
                      A                      A                      A
 Frequencies --  -1419.9850             -1415.3731             -1183.8252
 Red. masses --      1.0095                 1.0099                 1.0388
 Frc consts  --      1.1993                 1.1920                 0.8577
 IR Inten    --      0.0938                 0.0205                 1.7782

                      4                      5                      6
                      A                      A                      A
 Frequencies --  -1164.7940              -892.6274              -874.4511
 Red. masses --      1.0369                 1.0611                 1.0808
 Frc consts  --      0.8289                 0.4981                 0.4869
 IR Inten    --      2.0524                 4.2791                 3.7694

                      7                      8                      9
                      A                      A                      A
 Frequencies --   -864.2162              -851.7181              -720.3153
 Red. masses --      1.1256                 1.1500                 1.2339
 Frc consts  --      0.4953                 0.4915                 0.3772
 IR Inten    --      2.2200                 4.5328                14.9344

                     10                     11                     12
                      A                      A                      A
 Frequencies --   -668.5982              -632.9223              -578.2562
 Red. masses --      1.1432                 1.2812                 1.1020
 Frc consts  --      0.3011                 0.3024                 0.2171
 IR Inten    --      3.6844                12.5763                 3.6519

                     13                     14                     15
                      A                      A                      A
 Frequencies --   -487.4327              -455.2655              -276.2576
 Red. masses --      1.1748                 1.6550                10.2715
 Frc consts  --      0.1645                 0.2021                 0.4619
 IR Inten    --     11.6982                 0.6686                 4.7420

                     16                     17                     18
                      A                      A                      A
 Frequencies --   -191.0670              -153.3371               -82.1911
 Red. masses --     12.5651                10.3054                 7.5335
 Frc consts  --      0.2703                 0.1428                 0.0300
 IR Inten    --      5.5177                 5.9366                 4.0654

                     19                     20                     21
                      A                      A                      A
 Frequencies --     51.8692               154.9588               220.6324
 Red. masses --     10.3395                 8.2283                 8.4126
 Frc consts  --      0.0164                 0.1164                 0.2413
 IR Inten    --      4.2562                 0.1736                 5.7932

                     22                     23                     24
                      A                      A                      A
 Frequencies --    318.6624               368.1831               409.6038
 Red. masses --      7.9435                 7.9294                 7.3935
 Frc consts  --      0.4753                 0.6333                 0.7308
 IR Inten    --      2.5576                 6.7647                20.4748

                     25                     26                     27
                      A                      A                      A
 Frequencies --    457.7240               473.5048               487.5033
 Red. masses --      4.8021                 5.6338                 6.7880
 Frc consts  --      0.5928                 0.7442                 0.9505
 IR Inten    --      3.9622                 2.2286                 8.4644

                     28                     29                     30
                      A                      A                      A
 Frequencies --    513.1320               525.0983               563.9916
 Red. masses --      7.8603                 6.6648                 4.8151
 Frc consts  --      1.2194                 1.0827                 0.9024
 IR Inten    --      9.0320                 3.1701                 8.6164

                     31                     32                     33
                      A                      A                      A
 Frequencies --    575.0907               584.8744               597.7376
 Red. masses --      5.3897                 1.8147                 4.0386
 Frc consts  --      1.0502                 0.3657                 0.8502
 IR Inten    --      6.9487                50.5343                 3.1042

                     34                     35                     36
                      A                      A                      A
 Frequencies --    635.0004               649.9683               719.2968
 Red. masses --      4.1916                 1.8296                 3.5719
 Frc consts  --      0.9958                 0.4554                 1.0889
 IR Inten    --      6.5951                29.9744                 6.3047

                     37                     38                     39
                      A                      A                      A
 Frequencies --    773.1322               795.9841               819.9568
 Red. masses --      5.0829                 3.8701                 3.3546
 Frc consts  --      1.7901                 1.4447                 1.3288
 IR Inten    --     16.1355                 2.3236                 8.8947

                     40                     41                     42
                      A                      A                      A
 Frequencies --    854.9336               864.4532               870.8782
 Red. masses --      4.2561                 5.3731                 1.8249
 Frc consts  --      1.8328                 2.3657                 0.8154
 IR Inten    --      8.8926                 7.5973                 3.8032

                     43                     44                     45
                      A                      A                      A
 Frequencies --    894.7968               921.7275               936.6931
 Red. masses --      4.3524                 2.1307                 1.2248
 Frc consts  --      2.0532                 1.0665                 0.6332
 IR Inten    --     16.8781                 5.0296                13.2026

                     46                     47                     48
                      A                      A                      A
 Frequencies --    974.5988               988.4982              1007.2694
 Red. masses --      2.1267                 2.0761                 1.0468
 Frc consts  --      1.1902                 1.1952                 0.6258
 IR Inten    --      1.1075                 7.8301                18.3814

                     49                     50                     51
                      A                      A                      A
 Frequencies --   1036.3725              1041.5078              1069.8920
 Red. masses --      1.1725                 2.3896                 1.5868
 Frc consts  --      0.7420                 1.5272                 1.0702
 IR Inten    --     14.9150                11.9114                24.7015

                     52                     53                     54
                      A                      A                      A
 Frequencies --   1095.8251              1140.8440              1154.1680
 Red. masses --      2.2261                 5.5669                 4.9400
 Frc consts  --      1.5750                 4.2689                 3.8772
 IR Inten    --     35.1132                95.2768                18.2201

                     55                     56                     57
                      A                      A                      A
 Frequencies --   1221.9022              1258.4522              1282.6996
 Red. masses --      6.9881                10.4750                 7.0539
 Frc consts  --      6.1472                 9.7741                 6.8380
 IR Inten    --      4.7118                36.1154                28.0780

                     58                     59                     60
                      A                      A                      A
 Frequencies --   1435.1514              1546.1650              1587.9162
 Red. masses --     10.8654                11.4890                11.1077
 Frc consts  --     13.1854                16.1824                16.5017
 IR Inten    --    359.0430               139.7700               330.9877

                     61                     62                     63
                      A                      A                      A
 Frequencies --   1696.5569              1722.9948              2288.8556
 Red. masses --     12.0381                12.1639                13.0722
 Frc consts  --     20.4148                21.2761                40.3491
 IR Inten    --    754.3675               506.6850               331.4468

                     64                     65                     66
                      A                      A                      A
 Frequencies --   2548.6576              4478.4797              4478.5917
 Red. masses --     12.7192                 1.0310                 1.0310
 Frc consts  --     48.6779                12.1831                12.1838
 IR Inten    --    274.1258                32.2857                36.9194

                     67                     68                     69
                      A                      A                      A
 Frequencies --   4530.7763              4544.4250              4603.1834
 Red. masses --      1.0586                 1.0601                 1.0868
 Frc consts  --     12.8031                12.8994                13.5685
 IR Inten    --     17.2024                12.6393                30.5346

                     70                     71                     72
                      A                      A                      A
 Frequencies --   4667.2789              4678.3020              4678.9882
 Red. masses --      1.1110                 1.1077                 1.1072
 Frc consts  --     14.2591                14.2833                14.2819
 IR Inten    --      2.7203                 5.9321                 4.0759

                     73                     74                     75
                      A                      A                      A
 Frequencies --   4681.3174              4692.0307              4693.9089
 Red. masses --      1.1097                 1.1077                 1.1082
 Frc consts  --     14.3276                14.3680                14.3861
 IR Inten    --      6.2656                 6.1756                 3.2646

 - Thermochemistry -
 -------------------
 Temperature   298.150 Kelvin.  Pressure   1.00000 Atm.
 Atom     1 has atomic number  6 and mass  12.00000

 Molecular mass:   223.07188 amu.
 Principal axes and moments of inertia in atomic units:
                           1         2         3
     Eigenvalues --  2020.825905792.768637331.29171
           X            0.99988   0.01464   0.00444
           Y           -0.01454   0.99966  -0.02169
           Z           -0.00476   0.02162   0.99975
 This molecule is an asymmetric top.
 Rotational symmetry number  1.
 Warning -- assumption of classical behavior for rotation
           may cause significant error
 Rotational temperatures (Kelvin)      0.04286     0.01495     0.01181
 Rotational constants (GHZ):           0.89307     0.31155     0.24617
   18 imaginary frequencies ignored.
 Zero-point vibrational energy     555456.0 (Joules/Mol)
                                  132.75718 (Kcal/Mol)
 Warning -- explicit consideration of  15 degrees of freedom as
           vibrations may cause significant error
 Vibrational temperatures:     74.63   222.95   317.44   458.48   529.73
          (Kelvin)            589.33   658.56   681.27   701.41   738.28
                              755.50   811.46   827.43   841.50   860.01
                              913.62   935.16  1034.91  1112.36  1145.24
                             1179.73  1230.06  1243.76  1253.00  1287.41
                             1326.16  1347.69  1402.23  1422.23  1449.24
                             1491.11  1498.50  1539.34  1576.65  1641.42
                             1660.59  1758.04  1810.63  1845.52  2064.86
                             2224.59  2284.66  2440.97  2479.01  3293.15
                             3666.95  6443.53  6443.69  6518.78  6538.41
                             6622.95  6715.17  6731.03  6732.02  6735.37
                             6750.79  6753.49

 Zero-point correction=                           0.211562 (Hartree/Particle)
 Thermal correction to Energy=                    0.220559
 Thermal correction to Enthalpy=                  0.221503
 Thermal correction to Gibbs Free Energy=         0.175742
 Sum of electronic and zero-point Energies=           -796.258066
 Sum of electronic and thermal Energies=              -796.249069
 Sum of electronic and thermal Enthalpies=            -796.248124
 Sum of electronic and thermal Free Energies=         -796.293886

                     E (Thermal)             CV                S
                      KCal/Mol        Cal/Mol-Kelvin    Cal/Mol-Kelvin
 Total                  138.403             38.366             96.312
 Electronic               0.000              0.000              0.000
 Translational            0.889              2.981             42.110
 Rotational               0.889              2.981             32.817
 Vibrational            136.625             32.404             21.386
 Vibration     1          0.596              1.977              4.745
 Vibration     2          0.620              1.897              2.610
 Vibration     3          0.647              1.810              1.954
 Vibration     4          0.705              1.638              1.317
 Vibration     5          0.741              1.538              1.087
 Vibration     6          0.774              1.449              0.928
 Vibration     7          0.816              1.344              0.773
 Vibration     8          0.830              1.309              0.728
 Vibration     9          0.843              1.278              0.690
 Vibration    10          0.868              1.221              0.626
 Vibration    11          0.880              1.194              0.598
 Vibration    12          0.920              1.109              0.516
 Vibration    13          0.931              1.085              0.495
 Vibration    14          0.942              1.064              0.476
 Vibration    15          0.956              1.037              0.454

 Normal termination of Gaussian 16 at Mon Mar  6 10:45:52 2023.
