 Gaussian 16, Revision C.01,
 Gaussian 16:  ES64L-G16RevC.01  3-Jul-2019

 ----------------------------------------------------------------------
 #p pop=(regular,nbo,savenbos) freq=noraman def2svp empiricaldispersion
 =gd3bj output=wfx pbe1pbe
 ----------------------------------------------------------------------

 ----------------------------------------
 QAMFOA_Complex_0_Ligand_0_ON_Cu_oriented
 ----------------------------------------
 Symbolic Z-matrix:
 Charge = -1 Multiplicity = 1

                         Standard orientation:
 ---------------------------------------------------------------------
 Center     Atomic      Atomic             Coordinates (Angstroms)
 Number     Number       Type             X           Y           Z
 ---------------------------------------------------------------------
      1          7           0        0.988803    0.628211   -1.079065
      2          8           0       -1.435084   -0.740882   -1.145815
      3          6           0       -1.035401    1.237526    0.169069
      4          6           0       -1.879149    0.134457   -0.333491
      5          6           0       -3.220171    0.095775    0.225877
      6          6           0       -3.596790    1.067295    1.053129
      7          1           0       -4.459352    1.015258    1.396882
      8          6           0       -2.829006    2.147305    1.451664
      9          6           0       -1.530949    2.157337    1.020856
     10          1           0       -0.965708    2.827720    1.328862
     11          6           0       -4.210646   -0.993639   -0.183356
     12          6           0       -5.589834   -0.841444    0.422225
     13          1           0       -5.524733   -0.866169    1.379712
     14          6           0       -3.646526   -2.345063    0.362555
     15          1           0       -2.766316   -2.491261    0.005857
     16          1           0       -4.222613   -3.063942    0.094739
     17          1           0       -3.601918   -2.309663    1.321511
     18          6           0        0.323383    1.340071   -0.231026
     19          1           0        0.805498    2.022074    0.178044
     20          6           0        2.413235    0.899005   -1.217857
     21          1           0        2.610805    0.769238   -2.168292
     22          6           0        3.205277   -0.156216   -0.498758
     23          1           0        2.878022   -1.005479   -0.861471
     24          6           0        4.677420   -0.149490   -0.808308
     25          1           0        5.065656    0.681176   -0.489850
     26          1           0        4.800726   -0.185792   -1.769545
     27          6           0        5.397180   -1.308953   -0.172417
     28          1           0        5.077247   -2.129363   -0.576828
     29          1           0        6.343465   -1.231841   -0.374587
     30          6           0        5.239450   -1.408713    1.269537
     31          1           0        5.634205   -0.637764    1.705941
     32          1           0        5.676855   -2.208822    1.600864
     33          6           0        3.778009   -1.465625    1.538903
     34          1           0        3.634990   -1.484019    2.498601
     35          1           0        3.422745   -2.291213    1.172215
     36          6           0        2.981319   -0.250520    0.927347
     37          1           0        2.033991   -0.366191    1.099592
     38          1           0        3.267296    0.571775    1.355430
     39          6           0        2.888504    2.306235   -0.893366
     40          1           0        2.354403    2.944159   -1.373985
     41          1           0        3.808521    2.400785   -1.152096
     42          1           0        2.803602    2.464267    0.050394
     43          6           0       -4.326699   -1.098801   -1.735185
     44          1           0       -4.740604   -0.304944   -2.078372
     45          1           0       -4.862421   -1.863735   -1.963161
     46          1           0       -3.452064   -1.196702   -2.114392
     47          1           0       -6.151959   -1.557330    0.120050
     48          1           0       -3.175643    2.828911    1.981599
     49          1           0       -5.967295   -0.000800    0.147859
 ---------------------------------------------------------------------

 SCF Done:  E(RPBE1PBE) =  -868.819342648     A.U. after   15 cycles

 The electronic state is 1-A.
 Alpha  occ. eigenvalues --  -18.96746 -14.20518 -10.10823 -10.10701 -10.10063
 Alpha  occ. eigenvalues --  -10.10025 -10.09899 -10.09747 -10.09359 -10.09075
 Alpha  occ. eigenvalues --  -10.08667 -10.08101 -10.06823 -10.05617 -10.05480
 Alpha  occ. eigenvalues --  -10.05418 -10.05015 -10.04862 -10.03961 -10.03891
 Alpha  occ. eigenvalues --  -10.03708  -0.81392  -0.79634  -0.77257  -0.72253
 Alpha  occ. eigenvalues --   -0.70780  -0.69446  -0.67872  -0.65526  -0.62508
 Alpha  occ. eigenvalues --   -0.60617  -0.59329  -0.58497  -0.56562  -0.56000
 Alpha  occ. eigenvalues --   -0.52555  -0.49737  -0.48127  -0.47127  -0.43305
 Alpha  occ. eigenvalues --   -0.41810  -0.41233  -0.39584  -0.38809  -0.38284
 Alpha  occ. eigenvalues --   -0.37482  -0.36590  -0.34634  -0.34449  -0.33790
 Alpha  occ. eigenvalues --   -0.33615  -0.31832  -0.30972  -0.30511  -0.30340
 Alpha  occ. eigenvalues --   -0.29540  -0.29398  -0.28929  -0.27682  -0.27349
 Alpha  occ. eigenvalues --   -0.26939  -0.26819  -0.26436  -0.25118  -0.24250
 Alpha  occ. eigenvalues --   -0.23873  -0.22005  -0.21415  -0.21098  -0.20577
 Alpha  occ. eigenvalues --   -0.20266  -0.19767  -0.18241  -0.16735  -0.15955
 Alpha  occ. eigenvalues --   -0.10048  -0.09680  -0.04322  -0.02511
 Alpha virt. eigenvalues --    0.13187   0.16433   0.18791   0.18900   0.19475
 Alpha virt. eigenvalues --    0.20139   0.20631   0.21952   0.22626   0.23580
 Alpha virt. eigenvalues --    0.24016   0.24496   0.24985   0.25165   0.25980

 Mulliken charges:
               1
     1  N   -0.209294
     2  O   -0.364440
     3  C   -0.061560
     4  C    0.143722
     5  C   -0.016073
     6  C    0.041770
     7  H   -0.167080
     8  C    0.037105
     9  C    0.070613
    10  H   -0.164844
    11  C   -0.488833
    12  C    0.302038
    13  H   -0.045352
    14  C    0.267752
    15  H   -0.023355
    16  H   -0.075858
    17  H   -0.059070
    18  C    0.126999
    19  H   -0.175752
    20  C    0.086260
    21  H   -0.073864
    22  C   -0.129030
    23  H   -0.041654
    24  C    0.136286
    25  H   -0.052212
    26  H   -0.053135
    27  C    0.098064
    28  H   -0.050223
    29  H   -0.059529
    30  C    0.111491
    31  H   -0.050953
    32  H   -0.050161
    33  C    0.071972
    34  H   -0.049228
    35  H   -0.037717
    36  C    0.153739
    37  H   -0.005134
    38  H   -0.062848
    39  C    0.201687
    40  H   -0.031531
    41  H   -0.058966
    42  H   -0.031534
    43  C    0.273992
    44  H   -0.058117
    45  H   -0.076801
    46  H   -0.021023
    47  H   -0.066024
    48  H   -0.166113
    49  H   -0.046178
 Sum of Mulliken charges =  -1.00000

 Dipole moment (field-independent basis, Debye):
    X=              6.4582    Y=              0.0282    Z=              2.3490  Tot=              6.8722
 Quadrupole moment (field-independent basis, Debye-Ang):
   XX=           -163.2497   YY=           -138.4283   ZZ=           -139.5780
   XY=              0.6261   XZ=             -0.4792   YZ=             -2.8785

  Exact polarizability:     277.562       5.671     184.493     -21.590      16.333     162.236
 Approx polarizability:     334.512      -3.261     279.324     -46.523      50.125     257.806

 Summary of Natural Population Analysis:

                                       Natural Population
                Natural  -----------------------------------------------
    Atom  No    Charge         Core      Valence    Rydberg      Total
 -----------------------------------------------------------------------
      N    1   -0.51072      1.99936     5.49219    0.01917     7.51072
      O    2   -0.71694      1.99977     6.70888    0.00829     8.71694
      C    3   -0.21406      1.99890     4.19522    0.01994     6.21406
      C    4    0.44949      1.99894     3.50844    0.04313     5.55051
      C    5   -0.14874      1.99882     4.12685    0.02308     6.14874
      C    6   -0.18995      1.99892     4.17587    0.01516     6.18995
      H    7    0.15350      0.00000     0.84207    0.00443     0.84650
      C    8   -0.29015      1.99911     4.27274    0.01830     6.29015
      C    9   -0.16392      1.99901     4.14928    0.01562     6.16392
      H   10    0.15061      0.00000     0.84477    0.00462     0.84939
      C   11   -0.01436      1.99913     3.99855    0.01668     6.01436
      C   12   -0.56771      1.99915     4.55608    0.01247     6.56771
      H   13    0.18389      0.00000     0.81281    0.00330     0.81611
      C   14   -0.54309      1.99913     4.53052    0.01344     6.54309
      H   15    0.20686      0.00000     0.78754    0.00560     0.79314
      H   16    0.16286      0.00000     0.83392    0.00322     0.83714
      H   17    0.17498      0.00000     0.82215    0.00287     0.82502
      C   18    0.12597      1.99899     3.84637    0.02867     5.87403
      H   19    0.10075      0.00000     0.89070    0.00855     0.89925
      C   20    0.01109      1.99892     3.96572    0.02427     5.98891
      H   21    0.17451      0.00000     0.82085    0.00464     0.82549
      C   22   -0.21714      1.99892     4.19906    0.01915     6.21714
      H   23    0.19889      0.00000     0.79329    0.00782     0.80111
      C   24   -0.36641      1.99907     4.35217    0.01517     6.36641
      H   25    0.17209      0.00000     0.82321    0.00469     0.82791
      H   26    0.18617      0.00000     0.80973    0.00410     0.81383
      C   27   -0.35982      1.99909     4.34708    0.01366     6.35982
      H   28    0.17658      0.00000     0.81882    0.00460     0.82342
      H   29    0.17859      0.00000     0.81722    0.00419     0.82141
      C   30   -0.36312      1.99912     4.35203    0.01197     6.36312
      H   31    0.17228      0.00000     0.82309    0.00463     0.82772
      H   32    0.18084      0.00000     0.81524    0.00392     0.81916
      C   33   -0.35645      1.99908     4.34348    0.01388     6.35645
      H   34    0.18033      0.00000     0.81604    0.00363     0.81967
      H   35    0.17754      0.00000     0.81819    0.00426     0.82246
      C   36   -0.37044      1.99900     4.35547    0.01597     6.37044
      H   37    0.21172      0.00000     0.78375    0.00453     0.78828
      H   38    0.16996      0.00000     0.82563    0.00441     0.83004
      C   39   -0.58981      1.99918     4.57972    0.01090     6.58981
      H   40    0.19283      0.00000     0.80397    0.00320     0.80717
      H   41    0.18157      0.00000     0.81550    0.00293     0.81843
      H   42    0.17909      0.00000     0.81798    0.00293     0.82091
      C   43   -0.54507      1.99912     4.53312    0.01283     6.54507
      H   44    0.17339      0.00000     0.82352    0.00309     0.82661
      H   45    0.16432      0.00000     0.83261    0.00307     0.83568
      H   46    0.21631      0.00000     0.77774    0.00595     0.78369
      H   47    0.18106      0.00000     0.81580    0.00313     0.81894
      H   48    0.15528      0.00000     0.84151    0.00321     0.84472
      H   49    0.18452      0.00000     0.81197    0.00351     0.81548
 =======================================================================
   * Total *   -1.00000     41.98073   115.52847    0.49080   158.00000

 ******   37 imaginary frequencies (negative Signs) ******

                      1                      2                      3
                      A                      A                      A
 Frequencies --  -1467.7406             -1396.2726             -1383.6363
 Red. masses --      1.0823                 1.0084                 1.0454
 Frc consts  --      1.3737                 1.1583                 1.1792
 IR Inten    --     47.0261                 0.2393                17.1176

                      4                      5                      6
                      A                      A                      A
 Frequencies --  -1381.6386             -1373.1513             -1364.6352
 Red. masses --      1.0093                 1.0088                 1.0109
 Frc consts  --      1.1351                 1.1207                 1.1091
 IR Inten    --      0.5369                 0.3147                 0.0563

                      7                      8                      9
                      A                      A                      A
 Frequencies --  -1317.8952             -1267.6400             -1109.3113
 Red. masses --      1.0344                 1.0449                 1.0458
 Frc consts  --      1.0585                 0.9893                 0.7582
 IR Inten    --      0.6468                 1.2813                 4.8443

                     10                     11                     12
                      A                      A                      A
 Frequencies --  -1088.3306             -1065.6434             -1054.8814
 Red. masses --      1.0218                 1.0254                 1.0272
 Frc consts  --      0.7131                 0.6861                 0.6734
 IR Inten    --      0.1086                 0.6055                 4.0705

                     13                     14                     15
                      A                      A                      A
 Frequencies --  -1028.5128             -1027.2194             -1025.7758
 Red. masses --      1.0321                 1.0480                 1.0401
 Frc consts  --      0.6433                 0.6515                 0.6448
 IR Inten    --      6.4417                 5.9549                23.9437

                     16                     17                     18
                      A                      A                      A
 Frequencies --  -1019.1161             -1017.1283             -1015.0991
 Red. masses --      1.0677                 1.0396                 1.0355
 Frc consts  --      0.6533                 0.6337                 0.6287
 IR Inten    --     26.6290                 9.2615                 0.5778

                     19                     20                     21
                      A                      A                      A
 Frequencies --  -1008.5748              -968.9027              -962.5205
 Red. masses --      1.0652                 1.0197                 1.0199
 Frc consts  --      0.6384                 0.5640                 0.5567
 IR Inten    --      4.5075                 1.5464                 1.6127

                     22                     23                     24
                      A                      A                      A
 Frequencies --   -938.7751              -801.6140              -700.4647
 Red. masses --      1.0846                 1.0977                 1.1181
 Frc consts  --      0.5631                 0.4156                 0.3232
 IR Inten    --      6.4420                13.3597                 5.7509

                     25                     26                     27
                      A                      A                      A
 Frequencies --   -605.9098              -590.5338              -562.4092
 Red. masses --      1.1953                 1.1977                 1.3253
 Frc consts  --      0.2586                 0.2461                 0.2470
 IR Inten    --      0.5070                 0.1362                 0.2644

                     28                     29                     30
                      A                      A                      A
 Frequencies --   -538.5325              -511.5103              -496.1628
 Red. masses --      1.3360                 1.2359                 1.5821
 Frc consts  --      0.2283                 0.1905                 0.2295
 IR Inten    --      0.9618                 2.3177                 1.2706

                     31                     32                     33
                      A                      A                      A
 Frequencies --   -440.5923              -398.9162              -359.9482
 Red. masses --      1.5474                 1.3307                 1.5768
 Frc consts  --      0.1770                 0.1248                 0.1204
 IR Inten    --      1.9771                 1.2352                 2.7381

                     34                     35                     36
                      A                      A                      A
 Frequencies --   -257.8339              -245.1884              -176.3323
 Red. masses --      2.2069                 1.4335                 2.9583
 Frc consts  --      0.0864                 0.0508                 0.0542
 IR Inten    --      7.7955                 1.6168                 3.4085

                     37                     38                     39
                      A                      A                      A
 Frequencies --    -86.9284               115.9331               160.0755
 Red. masses --      3.4545                 6.9468                 1.3398
 Frc consts  --      0.0154                 0.0550                 0.0202
 IR Inten    --      1.0507                 5.9499                23.4625

                     40                     41                     42
                      A                      A                      A
 Frequencies --    180.9097               217.3209               233.6411
 Red. masses --      3.3197                 7.1273                 1.4103
 Frc consts  --      0.0640                 0.1983                 0.0454
 IR Inten    --      0.1779                 1.2054                26.3871

                     43                     44                     45
                      A                      A                      A
 Frequencies --    265.6202               279.3937               302.7721
 Red. masses --      5.0494                 3.8812                 4.4918
 Frc consts  --      0.2099                 0.1785                 0.2426
 IR Inten    --      1.9676                 6.3049                 0.8975

                     46                     47                     48
                      A                      A                      A
 Frequencies --    307.7097               317.2841               354.9043
 Red. masses --      2.1848                 1.9016                 1.2856
 Frc consts  --      0.1219                 0.1128                 0.0954
 IR Inten    --     21.8826                 9.8097                29.1036

                     49                     50                     51
                      A                      A                      A
 Frequencies --    362.7735               379.8105               399.5630
 Red. masses --      2.4362                 1.5316                 4.8603
 Frc consts  --      0.1889                 0.1302                 0.4572
 IR Inten    --      1.2662                 6.6518                 1.2462

                     52                     53                     54
                      A                      A                      A
 Frequencies --    431.9092               453.9117               486.2791
 Red. masses --      7.1846                 5.9827                 5.7885
 Frc consts  --      0.7897                 0.7263                 0.8065
 IR Inten    --      5.8266                 2.0994                 0.6850

                     55                     56                     57
                      A                      A                      A
 Frequencies --    528.6297               544.0450               584.8337
 Red. masses --      3.0979                 2.5404                 5.3559
 Frc consts  --      0.5101                 0.4430                 1.0793
 IR Inten    --      1.0694                 0.1141                26.5424

                     58                     59                     60
                      A                      A                      A
 Frequencies --    621.4722               629.0173               632.2376
 Red. masses --      6.5033                 9.1631                 4.8736
 Frc consts  --      1.4799                 2.1361                 1.1478
 IR Inten    --      2.0956                 0.4542                 2.1990

                     61                     62                     63
                      A                      A                      A
 Frequencies --    643.7084               654.6085               672.4557
 Red. masses --      2.1096                 5.1737                 3.5320
 Frc consts  --      0.5150                 1.3062                 0.9410
 IR Inten    --      0.9826                 1.4384                17.3552

                     64                     65                     66
                      A                      A                      A
 Frequencies --    678.7242               710.3088               714.5554
 Red. masses --      1.3590                 3.4106                 1.7717
 Frc consts  --      0.3689                 1.0139                 0.5330
 IR Inten    --      4.4829                12.9718                 0.1314

                     67                     68                     69
                      A                      A                      A
 Frequencies --    749.0994               761.4280               767.0211
 Red. masses --      3.9463                 2.6019                 2.5050
 Frc consts  --      1.3047                 0.8888                 0.8683
 IR Inten    --     17.9316                 0.8086                10.6889

                     70                     71                     72
                      A                      A                      A
 Frequencies --    802.1700               824.8405               841.2000
 Red. masses --      2.8178                 4.4007                 1.6891
 Frc consts  --      1.0683                 1.7640                 0.7042
 IR Inten    --     10.0608                12.9668                34.7748

                     73                     74                     75
                      A                      A                      A
 Frequencies --    859.6931               881.1464               886.0575
 Red. masses --      9.6956                 2.1230                 2.3595
 Frc consts  --      4.2220                 0.9712                 1.0914
 IR Inten    --      8.8321                 1.1176                 7.2378

                     76                     77                     78
                      A                      A                      A
 Frequencies --    897.5554               911.7847               932.0458
 Red. masses --      1.8403                 4.1763                 1.0550
 Frc consts  --      0.8735                 2.0456                 0.5400
 IR Inten    --      2.1531                 8.6826                 0.9527

                     79                     80                     81
                      A                      A                      A
 Frequencies --    943.9645               945.0709               949.8967
 Red. masses --      2.7648                 1.3005                 1.7571
 Frc consts  --      1.4515                 0.6844                 0.9341
 IR Inten    --      1.6181                12.8995                 4.4383

                     82                     83                     84
                      A                      A                      A
 Frequencies --    954.6801               962.9244               967.0736
 Red. masses --      1.3565                 1.5590                 1.6852
 Frc consts  --      0.7284                 0.8517                 0.9286
 IR Inten    --     13.2998                 3.6237                25.5750

                     85                     86                     87
                      A                      A                      A
 Frequencies --    981.4177               985.7029               989.9036
 Red. masses --      1.1532                 1.2173                 1.3666
 Frc consts  --      0.6544                 0.6969                 0.7890
 IR Inten    --      5.2093                 5.7457                 2.9711

                     88                     89                     90
                      A                      A                      A
 Frequencies --    997.5749              1000.6957              1005.2594
 Red. masses --      1.2230                 1.2212                 1.0761
 Frc consts  --      0.7171                 0.7205                 0.6407
 IR Inten    --     10.0594                 7.6484                 3.2512

                     91                     92                     93
                      A                      A                      A
 Frequencies --   1024.6062              1026.1503              1047.7903
 Red. masses --      1.6042                 1.3234                 1.2312
 Frc consts  --      0.9923                 0.8210                 0.7964
 IR Inten    --      7.7760                 6.3742                 6.3620

                     94                     95                     96
                      A                      A                      A
 Frequencies --   1075.9094              1089.5834              1125.7424
 Red. masses --      1.6839                 2.0792                 3.1094
 Frc consts  --      1.1485                 1.4544                 2.3217
 IR Inten    --      1.4294                 7.8008                 2.1142

                     97                     98                     99
                      A                      A                      A
 Frequencies --   1166.3687              1181.5881              1195.3982
 Red. masses --      4.0983                 3.3458                 3.5790
 Frc consts  --      3.2849                 2.7522                 3.0132
 IR Inten    --     34.0210                 2.1990                 3.8326

                    100                    101                    102
                      A                      A                      A
 Frequencies --   1210.7934              1233.5504              1253.1076
 Red. masses --      5.0853                 4.8948                 5.9987
 Frc consts  --      4.3924                 4.3883                 5.5499
 IR Inten    --     31.6050                 2.2621                50.9549

                    103                    104                    105
                      A                      A                      A
 Frequencies --   1310.9480              1322.6668              1365.0849
 Red. masses --      7.1406                 7.2043                 7.6382
 Frc consts  --      7.2303                 7.4257                 8.3861
 IR Inten    --      1.6626                25.9564                10.1690

                    106                    107                    108
                      A                      A                      A
 Frequencies --   1382.9445              1444.4770              1452.3382
 Red. masses --      6.8374                 8.9473                 6.9447
 Frc consts  --      7.7046                10.9993                 8.6305
 IR Inten    --      0.6917                 7.9496                 2.9957

                    109                    110                    111
                      A                      A                      A
 Frequencies --   1530.5363              1576.6845              1693.9451
 Red. masses --     11.6582                 9.7066                10.2610
 Frc consts  --     16.0905                14.2170                17.3475
 IR Inten    --    261.5896                75.2889               317.7996

                    112                    113                    114
                      A                      A                      A
 Frequencies --   1709.1226              1828.0123              4337.9631
 Red. masses --     10.8124                11.1229                 1.0858
 Frc consts  --     18.6088                21.8991                12.0382
 IR Inten    --    476.3229               120.7894                 9.6618

                    115                    116                    117
                      A                      A                      A
 Frequencies --   4347.0082              4403.0607              4407.8011
 Red. masses --      1.0872                 1.0600                 1.0599
 Frc consts  --     12.1048                12.1078                12.1325
 IR Inten    --     45.6297                18.9051                13.4808

                    118                    119                    120
                      A                      A                      A
 Frequencies --   4410.4187              4414.0891              4417.8191
 Red. masses --      1.0607                 1.0617                 1.0608
 Frc consts  --     12.1565                12.1881                12.1978
 IR Inten    --     52.3328                34.5778                13.2353

                    121                    122                    123
                      A                      A                      A
 Frequencies --   4457.1989              4457.3980              4460.2763
 Red. masses --      1.0320                 1.0321                 1.0317
 Frc consts  --     12.0794                12.0818                12.0923
 IR Inten    --     15.5291                13.1801                35.6108

                    124                    125                    126
                      A                      A                      A
 Frequencies --   4468.4954              4521.0822              4526.3483
 Red. masses --      1.0325                 1.1073                 1.1083
 Frc consts  --     12.1468                13.3348                13.3783
 IR Inten    --     54.4989                11.8056                15.7915

                    127                    128                    129
                      A                      A                      A
 Frequencies --   4530.3828              4534.1864              4541.1558
 Red. masses --      1.1079                 1.1077                 1.1078
 Frc consts  --     13.3969                13.4177                13.4604
 IR Inten    --      3.4376                32.7954                 9.5833

                    130                    131                    132
                      A                      A                      A
 Frequencies --   4655.7262              4661.5496              4663.4367
 Red. masses --      1.1060                 1.1066                 1.1062
 Frc consts  --     14.1248                14.1676                14.1743
 IR Inten    --     10.2955                10.2856                 8.0360

                    133                    134                    135
                      A                      A                      A
 Frequencies --   4664.1316              4665.6788              4669.6038
 Red. masses --      1.1057                 1.1069                 1.1067
 Frc consts  --     14.1718                14.1966                14.2182
 IR Inten    --     10.5300                15.8069                 8.1930

                    136                    137                    138
                      A                      A                      A
 Frequencies --   4672.9574              4697.7296              4994.2967
 Red. masses --      1.1066                 1.1070                 1.0859
 Frc consts  --     14.2374                14.3935                15.9583
 IR Inten    --     21.2252                 4.6108                29.5181

                    139                    140                    141
                      A                      A                      A
 Frequencies --   5007.5320              5016.2570              5028.0552
 Red. masses --      1.0859                 1.0879                 1.0917
 Frc consts  --     16.0431                16.1285                16.2606
 IR Inten    --      4.2468                13.9128                19.5621

 - Thermochemistry -
 -------------------
 Temperature   298.150 Kelvin.  Pressure   1.00000 Atm.
 Atom     1 has atomic number  7 and mass  14.00307

 Molecular mass:   286.21709 amu.
 Principal axes and moments of inertia in atomic units:
                           1         2         3
     Eigenvalues --  2853.26655********************
           X            0.99998   0.00673   0.00155
           Y           -0.00671   0.99988  -0.01360
           Z           -0.00164   0.01359   0.99991
 This molecule is an asymmetric top.
 Rotational symmetry number  1.
 Warning -- assumption of classical behavior for rotation
           may cause significant error
 Rotational temperatures (Kelvin)      0.03036     0.00643     0.00605
 Rotational constants (GHZ):           0.63252     0.13405     0.12614
   37 imaginary frequencies ignored.
 Zero-point vibrational energy    1157635.9 (Joules/Mol)
                                  276.68161 (Kcal/Mol)
 Warning -- explicit consideration of  20 degrees of freedom as
           vibrations may cause significant error
 Vibrational temperatures:    166.80   230.31   260.29   312.68   336.16
          (Kelvin)            382.17   401.99   435.62   442.73   456.50
                              510.63   521.95   546.46   574.88   621.42
                              653.08   699.65   760.58   782.76   841.45
                              894.16   905.02   909.65   926.15   941.84
                              967.51   976.53  1021.98  1028.09  1077.79
                             1095.53  1103.57  1154.14  1186.76  1210.30
                             1236.91  1267.77  1274.84  1291.38  1311.85
                             1341.01  1358.15  1359.75  1366.69  1373.57
                             1385.43  1391.40  1412.04  1418.21  1424.25
                             1435.29  1439.78  1446.34  1474.18  1476.40
                             1507.54  1547.99  1567.67  1619.69  1678.14
                             1700.04  1719.91  1742.06  1774.80  1802.94
                             1886.16  1903.02  1964.05  1989.75  2078.28
                             2089.59  2202.10  2268.50  2437.21  2459.05
                             2630.10  6241.36  6254.38  6335.02  6341.84
                             6345.61  6350.89  6356.26  6412.92  6413.20
                             6417.34  6429.17  6504.83  6512.41  6518.21
                             6523.68  6533.71  6698.55  6706.93  6709.65
                             6710.65  6712.87  6718.52  6723.34  6758.99
                             7185.68  7204.72  7217.28  7234.25

 Zero-point correction=                           0.440920 (Hartree/Particle)
 Thermal correction to Energy=                    0.454354
 Thermal correction to Enthalpy=                  0.455298
 Thermal correction to Gibbs Free Energy=         0.401934
 Sum of electronic and zero-point Energies=           -868.378422
 Sum of electronic and thermal Energies=              -868.364989
 Sum of electronic and thermal Enthalpies=            -868.364045
 Sum of electronic and thermal Free Energies=         -868.417409

                     E (Thermal)             CV                S
                      KCal/Mol        Cal/Mol-Kelvin    Cal/Mol-Kelvin
 Total                  285.111             61.294            112.313
 Electronic               0.000              0.000              0.000
 Translational            0.889              2.981             42.853
 Rotational               0.889              2.981             34.662
 Vibrational            283.334             55.333             34.798
 Vibration     1          0.608              1.936              3.167
 Vibration     2          0.622              1.891              2.549
 Vibration     3          0.630              1.866              2.319
 Vibration     4          0.646              1.815              1.981
 Vibration     5          0.654              1.789              1.851
 Vibration     6          0.671              1.736              1.625
 Vibration     7          0.680              1.712              1.537
 Vibration     8          0.694              1.668              1.402
 Vibration     9          0.698              1.659              1.375
 Vibration    10          0.704              1.641              1.324
 Vibration    11          0.731              1.565              1.144
 Vibration    12          0.737              1.549              1.110
 Vibration    13          0.750              1.513              1.040
 Vibration    14          0.766              1.471              0.964
 Vibration    15          0.793              1.401              0.852
 Vibration    16          0.812              1.352              0.784
 Vibration    17          0.842              1.280              0.693
 Vibration    18          0.884              1.187              0.590
 Vibration    19          0.899              1.153              0.557
 Vibration    20          0.942              1.064              0.476

 Normal termination of Gaussian 16 at Mon Mar  6 12:23:23 2023.
