 Gaussian 16, Revision C.01,
 Gaussian 16:  ES64L-G16RevC.01  3-Jul-2019

 ----------------------------------------------------------------------
 #p pop=(regular,nbo,savenbos) freq=noraman def2svp empiricaldispersion
 =gd3bj output=wfx pbe1pbe
 ----------------------------------------------------------------------

 ----------------------------------------
 QAMGAN_Complex_1_Ligand_1_ON_Cu_oriented
 ----------------------------------------
 Symbolic Z-matrix:
 Charge = -1 Multiplicity = 1

                         Standard orientation:
 ---------------------------------------------------------------------
 Center     Atomic      Atomic             Coordinates (Angstroms)
 Number     Number       Type             X           Y           Z
 ---------------------------------------------------------------------
      1          7           0        0.025366    1.301274    0.374566
      2          8           0        2.633912    1.565608    1.290510
      3          6           0        1.877489   -0.160152   -0.200008
      4          6           0        2.878934    0.500093    0.551402
      5          6           0        4.184414   -0.034747    0.550791
      6          1           0        4.850825    0.372348    1.056206
      7          6           0        4.480739   -1.150063   -0.186228
      8          6           0        2.248317   -1.280558   -0.969522
      9          6           0        0.534935    0.309400   -0.269486
     10          1           0       -0.034972   -0.149463   -0.843053
     11          6           0       -1.398367    1.636780   -0.001459
     12          1           0       -1.711734    2.277948    0.671090
     13          6           0       -1.429620    2.366119   -1.307824
     14          1           0       -0.818455    3.107015   -1.274530
     15          1           0       -2.317242    2.691117   -1.472039
     16          1           0       -1.170074    1.768658   -2.013084
     17          6           0        3.504623   -1.735256   -0.976915
     18          6           0       -2.302202    0.445160    0.114714
     19          6           0       -3.176557    0.051412   -0.886418
     20          6           0       -4.016970   -0.999504   -0.762307
     21          6           0       -4.041497   -1.727064    0.381470
     22          1           0       -4.623488   -2.445733    0.467486
     23          6           0       -3.197674   -1.395228    1.417192
     24          1           0       -3.194243   -1.904967    2.193801
     25          6           0       -2.363418   -0.310727    1.302843
     26          1           0       -1.826887   -0.070728    2.024684
     27          1           0        5.334929   -1.513865   -0.155844
     28          1           0        1.604428   -1.713445   -1.482336
     29          1           0       -4.581730   -1.225438   -1.465389
     30          1           0        3.727494   -2.455477   -1.521510
     31          1           0       -3.186596    0.534254   -1.680996
 ---------------------------------------------------------------------

 SCF Done:  E(RPBE1PBE) =  -708.385804053     A.U. after   17 cycles

 The electronic state is 1-A.
 Alpha  occ. eigenvalues --  -18.94178 -14.20574 -10.13150 -10.11850 -10.11726
 Alpha  occ. eigenvalues --  -10.11568 -10.11498 -10.11218 -10.11037 -10.08974
 Alpha  occ. eigenvalues --  -10.08801 -10.07156 -10.05745 -10.05697 -10.04726
 Alpha  occ. eigenvalues --  -10.03949 -10.03497  -0.79814  -0.77982  -0.76674
 Alpha  occ. eigenvalues --   -0.70522  -0.69235  -0.68254  -0.65772  -0.61968
 Alpha  occ. eigenvalues --   -0.58356  -0.56282  -0.54316  -0.51979  -0.48874
 Alpha  occ. eigenvalues --   -0.47094  -0.46160  -0.42225  -0.40084  -0.38918
 Alpha  occ. eigenvalues --   -0.37899  -0.36579  -0.36043  -0.35506  -0.32896
 Alpha  occ. eigenvalues --   -0.31148  -0.30714  -0.29744  -0.28969  -0.28732
 Alpha  occ. eigenvalues --   -0.26946  -0.25870  -0.25447  -0.23906  -0.23589
 Alpha  occ. eigenvalues --   -0.21342  -0.17923  -0.17681  -0.17123  -0.15325
 Alpha  occ. eigenvalues --   -0.14413  -0.09773  -0.09325  -0.02575  -0.01865
 Alpha virt. eigenvalues --    0.09707   0.10274   0.12660   0.18668   0.19515
 Alpha virt. eigenvalues --    0.20283   0.21863   0.21953   0.23164   0.24000
 Alpha virt. eigenvalues --    0.24515   0.25421   0.26665   0.27516   0.27651

 Mulliken charges:
               1
     1  N   -0.242092
     2  O   -0.445005
     3  C   -0.087576
     4  C    0.159018
     5  C    0.016143
     6  H   -0.166821
     7  C    0.105324
     8  C    0.088560
     9  C    0.147297
    10  H   -0.143517
    11  C    0.104159
    12  H   -0.046367
    13  C    0.254086
    14  H   -0.020986
    15  H   -0.051148
    16  H   -0.037605
    17  C    0.042079
    18  C   -0.091834
    19  C    0.070883
    20  C    0.110172
    21  C    0.090819
    22  H   -0.121019
    23  C    0.093662
    24  H   -0.113187
    25  C    0.111031
    26  H   -0.104733
    27  H   -0.145435
    28  H   -0.159461
    29  H   -0.126109
    30  H   -0.155161
    31  H   -0.135178
 Sum of Mulliken charges =  -1.00000

 Dipole moment (field-independent basis, Debye):
    X=             -9.3828    Y=             -3.2409    Z=             -3.2161  Tot=             10.4348
 Quadrupole moment (field-independent basis, Debye-Ang):
   XX=           -138.7559   YY=           -111.4008   ZZ=           -105.0817
   XY=             -5.9546   XZ=             -4.6613   YZ=             -7.3017

  Exact polarizability:     229.645      -5.963     148.847      10.811      10.678     124.843
 Approx polarizability:     296.790      -9.663     255.715      20.925      39.802     216.738

 Summary of Natural Population Analysis:

                                       Natural Population
                Natural  -----------------------------------------------
    Atom  No    Charge         Core      Valence    Rydberg      Total
 -----------------------------------------------------------------------
      N    1   -0.50251      1.99942     5.48443    0.01866     7.50251
      O    2   -0.72281      1.99981     6.71554    0.00747     8.72281
      C    3   -0.21449      1.99892     4.19661    0.01896     6.21449
      C    4    0.39479      1.99886     3.56745    0.03891     5.60521
      C    5   -0.25610      1.99900     4.23709    0.02001     6.25610
      H    6    0.16100      0.00000     0.83339    0.00561     0.83900
      C    7   -0.18302      1.99913     4.16921    0.01468     6.18302
      C    8   -0.15487      1.99905     4.14038    0.01544     6.15487
      C    9    0.12695      1.99903     3.84480    0.02922     5.87305
      H   10    0.10622      0.00000     0.88573    0.00805     0.89378
      C   11   -0.02613      1.99890     4.00538    0.02185     6.02613
      H   12    0.18864      0.00000     0.80719    0.00417     0.81136
      C   13   -0.55913      1.99917     4.54930    0.01066     6.55913
      H   14    0.20164      0.00000     0.79417    0.00419     0.79836
      H   15    0.17412      0.00000     0.82235    0.00353     0.82588
      H   16    0.18316      0.00000     0.81400    0.00284     0.81684
      C   17   -0.29219      1.99908     4.27575    0.01736     6.29219
      C   18   -0.02071      1.99900     4.00421    0.01750     6.02071
      C   19   -0.19405      1.99897     4.18024    0.01484     6.19405
      C   20   -0.17879      1.99908     4.16484    0.01487     6.17879
      C   21   -0.19191      1.99911     4.17810    0.01471     6.19191
      H   22    0.15915      0.00000     0.83758    0.00326     0.84085
      C   23   -0.17462      1.99910     4.16113    0.01439     6.17462
      H   24    0.16328      0.00000     0.83355    0.00317     0.83672
      C   25   -0.14810      1.99900     4.13249    0.01660     6.14810
      H   26    0.17860      0.00000     0.81742    0.00398     0.82140
      H   27    0.14754      0.00000     0.84876    0.00370     0.85246
      H   28    0.15244      0.00000     0.84341    0.00415     0.84756
      H   29    0.16242      0.00000     0.83418    0.00340     0.83758
      H   30    0.15244      0.00000     0.84392    0.00364     0.84756
      H   31    0.16703      0.00000     0.82957    0.00340     0.83297
 =======================================================================
   * Total *   -1.00000     33.98462    85.65216    0.36321   120.00000

 ******   25 imaginary frequencies (negative Signs) ******

                      1                      2                      3
                      A                      A                      A
 Frequencies --  -1479.6698             -1472.3601             -1406.5034
 Red. masses --      1.0859                 1.0848                 1.0509
 Frc consts  --      1.4008                 1.3855                 1.2249
 IR Inten    --     62.7945                70.2677                 2.2970

                      4                      5                      6
                      A                      A                      A
 Frequencies --  -1396.3672             -1372.8082             -1364.9918
 Red. masses --      1.0466                 1.0093                 1.0526
 Frc consts  --      1.2024                 1.1207                 1.1555
 IR Inten    --     15.1979                 0.0587                 0.8318

                      7                      8                      9
                      A                      A                      A
 Frequencies --  -1314.0285             -1287.1744             -1234.8854
 Red. masses --      1.0341                 1.0312                 1.0191
 Frc consts  --      1.0520                 1.0066                 0.9156
 IR Inten    --      1.3367                 0.3265                 0.5660

                     10                     11                     12
                      A                      A                      A
 Frequencies --  -1225.7125             -1171.6727             -1009.9297
 Red. masses --      1.0430                 1.0403                 1.0485
 Frc consts  --      0.9233                 0.8414                 0.6301
 IR Inten    --      0.3579                 0.4579                23.9209

                     13                     14                     15
                      A                      A                      A
 Frequencies --   -998.3504              -991.8885              -945.8319
 Red. masses --      1.0591                 1.0777                 1.0782
 Frc consts  --      0.6220                 0.6247                 0.5683
 IR Inten    --      3.3184                 1.4440                 0.2187

                     16                     17                     18
                      A                      A                      A
 Frequencies --   -920.0497              -883.8506              -835.8444
 Red. masses --      1.1077                 1.1472                 1.0786
 Frc consts  --      0.5525                 0.5280                 0.4440
 IR Inten    --      4.3218                 1.1512                10.7018

                     19                     20                     21
                      A                      A                      A
 Frequencies --   -804.7266              -761.4143              -740.7116
 Red. masses --      1.0994                 1.1116                 1.1281
 Frc consts  --      0.4195                 0.3797                 0.3647
 IR Inten    --      7.8982                 8.3481                 8.3155

                     22                     23                     24
                      A                      A                      A
 Frequencies --   -674.0816              -662.6834              -275.4330
 Red. masses --      1.0548                 1.1351                 2.4223
 Frc consts  --      0.2824                 0.2937                 0.1083
 IR Inten    --     18.6756                 0.1629                 1.1437

                     25                     26                     27
                      A                      A                      A
 Frequencies --   -195.7808               113.7131               132.6430
 Red. masses --      2.7461                 7.1684                 8.2839
 Frc consts  --      0.0620                 0.0546                 0.0859
 IR Inten    --      1.8300                 0.9455                 0.7041

                     28                     29                     30
                      A                      A                      A
 Frequencies --    161.2657               189.0636               244.1648
 Red. masses --      9.5486                 8.4757                 8.1898
 Frc consts  --      0.1463                 0.1785                 0.2877
 IR Inten    --      1.9734                 0.2016                 1.5995

                     31                     32                     33
                      A                      A                      A
 Frequencies --    275.0272               390.3574               396.0991
 Red. masses --      7.9009                 3.3578                 1.3373
 Frc consts  --      0.3521                 0.3015                 0.1236
 IR Inten    --      2.4403                 8.0698                17.8136

                     34                     35                     36
                      A                      A                      A
 Frequencies --    407.7642               437.7807               466.0799
 Red. masses --      7.1593                 6.1127                 4.4335
 Frc consts  --      0.7014                 0.6902                 0.5674
 IR Inten    --      8.0537                 1.3536                 0.3398

                     37                     38                     39
                      A                      A                      A
 Frequencies --    484.7219               514.2600               576.7143
 Red. masses --      8.1454                10.5767                 4.3814
 Frc consts  --      1.1276                 1.6480                 0.8586
 IR Inten    --      3.1668                 0.0280                11.0603

                     40                     41                     42
                      A                      A                      A
 Frequencies --    603.8538               617.6749               625.5748
 Red. masses --     10.6184                 5.9956                 6.2456
 Frc consts  --      2.2812                 1.3477                 1.4401
 IR Inten    --      1.3171                10.4158                13.9535

                     43                     44                     45
                      A                      A                      A
 Frequencies --    631.4911               702.7962               712.4726
 Red. masses --      9.3843                 4.4319                 4.2516
 Frc consts  --      2.2049                 1.2897                 1.2716
 IR Inten    --      0.9531                18.8726                 1.1993

                     46                     47                     48
                      A                      A                      A
 Frequencies --    749.0595               759.2963               769.3783
 Red. masses --      3.6961                 3.9603                 3.6447
 Frc consts  --      1.2219                 1.3452                 1.2711
 IR Inten    --      6.0874                 5.0176                 2.1562

                     49                     50                     51
                      A                      A                      A
 Frequencies --    829.3112               846.7861               879.1228
 Red. masses --      3.0050                10.9446                 2.2421
 Frc consts  --      1.2177                 4.6238                 1.0209
 IR Inten    --      6.8237                 8.6045                11.0865

                     52                     53                     54
                      A                      A                      A
 Frequencies --    894.4188               912.8965               931.6838
 Red. masses --      4.1634                 3.8143                 2.2407
 Frc consts  --      1.9624                 1.8729                 1.1460
 IR Inten    --      5.1706                28.1880                16.7996

                     55                     56                     57
                      A                      A                      A
 Frequencies --    979.3051              1040.9219              1058.8425
 Red. masses --      3.8050                 2.4533                 1.5420
 Frc consts  --      2.1500                 1.5662                 1.0186
 IR Inten    --      7.1782                 9.6803                 4.5155

                     58                     59                     60
                      A                      A                      A
 Frequencies --   1075.6407              1159.1213              1262.2943
 Red. masses --      2.9962                 5.2054                 8.0272
 Frc consts  --      2.0424                 4.1206                 7.5359
 IR Inten    --     10.3508                11.7703                57.3045

                     61                     62                     63
                      A                      A                      A
 Frequencies --   1280.4524              1312.0062              1429.7125
 Red. masses --      7.4548                 9.0777                 8.2063
 Frc consts  --      7.2013                 9.2065                 9.8832
 IR Inten    --      2.5674                35.7734                 4.5340

                     64                     65                     66
                      A                      A                      A
 Frequencies --   1437.8853              1461.0522              1466.4638
 Red. masses --     10.0118                 9.1472                 9.6881
 Frc consts  --     12.1958                11.5046                12.2753
 IR Inten    --     80.5605                28.2808               108.2988

                     67                     68                     69
                      A                      A                      A
 Frequencies --   1488.0167              1559.9028              1635.8229
 Red. masses --      8.8433                 9.3644                10.0848
 Frc consts  --     11.5366                13.4253                15.8998
 IR Inten    --      0.4591                95.1068               157.4246

                     70                     71                     72
                      A                      A                      A
 Frequencies --   1681.9147              1701.3926              1751.2404
 Red. masses --     10.7115                10.0271                10.1314
 Frc consts  --     17.8529                17.1015                18.3067
 IR Inten    --    615.9516                 3.3499                77.7863

                     73                     74                     75
                      A                      A                      A
 Frequencies --   1753.7805              4340.4240              4463.0076
 Red. masses --     10.3219                 1.0870                 1.0323
 Frc consts  --     18.7051                12.0651                12.1148
 IR Inten    --      6.8647                21.2260                17.2835

                     76                     77                     78
                      A                      A                      A
 Frequencies --   4667.2099              4673.5354              4995.4596
 Red. masses --      1.1067                 1.1064                 1.0868
 Frc consts  --     14.2029                14.2381                15.9797
 IR Inten    --      6.7461                12.7956                15.7291

                     79                     80                     81
                      A                      A                      A
 Frequencies --   5007.0426              5020.0273              5023.6419
 Red. masses --      1.0858                 1.0863                 1.0895
 Frc consts  --     16.0378                16.1298                16.1993
 IR Inten    --      1.1057                 1.3564                 9.5242

                     82                     83                     84
                      A                      A                      A
 Frequencies --   5023.8487              5026.9292              5032.9571
 Red. masses --      1.0883                 1.0891                 1.0897
 Frc consts  --     16.1834                16.2147                16.2637
 IR Inten    --      0.4875                10.6267                 3.2731

                     85                     86                     87
                      A                      A                      A
 Frequencies --   5042.0797              5042.5841              5052.8136
 Red. masses --      1.0897                 1.0914                 1.0924
 Frc consts  --     16.3217                16.3513                16.4324
 IR Inten    --      3.1850                21.3192                 5.0378

 - Thermochemistry -
 -------------------
 Temperature   298.150 Kelvin.  Pressure   1.00000 Atm.
 Atom     1 has atomic number  7 and mass  14.00307

 Molecular mass:   224.10754 amu.
 Principal axes and moments of inertia in atomic units:
                           1         2         3
     Eigenvalues --  1906.876117304.105567980.71716
           X            0.99997  -0.00747   0.00105
           Y            0.00750   0.99920  -0.03916
           Z           -0.00075   0.03917   0.99923
 This molecule is an asymmetric top.
 Rotational symmetry number  1.
 Warning -- assumption of classical behavior for rotation
           may cause significant error
 Rotational temperatures (Kelvin)      0.04542     0.01186     0.01085
 Rotational constants (GHZ):           0.94644     0.24709     0.22614
   25 imaginary frequencies ignored.
 Zero-point vibrational energy     665140.5 (Joules/Mol)
                                  158.97238 (Kcal/Mol)
 Warning -- explicit consideration of  16 degrees of freedom as
           vibrations may cause significant error
 Vibrational temperatures:    163.61   190.84   232.03   272.02   351.30
          (Kelvin)            395.70   561.64   569.90   586.68   629.87
                              670.59   697.41   739.91   829.76   868.81
                              888.70   900.06   908.57  1011.17  1025.09
                             1077.73  1092.46  1106.96  1193.19  1218.34
                             1264.86  1286.87  1313.45  1340.49  1409.00
                             1497.65  1523.44  1547.61  1667.72  1816.16
                             1842.29  1887.68  2057.04  2068.80  2102.13
                             2109.91  2140.92  2244.35  2353.58  2419.90
                             2447.92  2519.64  2523.30  6244.90  6421.27
                             6715.07  6724.18  7187.35  7204.02  7222.70
                             7227.90  7228.20  7232.63  7241.30  7254.43
                             7255.15  7269.87

 Zero-point correction=                           0.253339 (Hartree/Particle)
 Thermal correction to Energy=                    0.263452
 Thermal correction to Enthalpy=                  0.264396
 Thermal correction to Gibbs Free Energy=         0.216793
 Sum of electronic and zero-point Energies=           -708.132465
 Sum of electronic and thermal Energies=              -708.122352
 Sum of electronic and thermal Enthalpies=            -708.121408
 Sum of electronic and thermal Free Energies=         -708.169011

                     E (Thermal)             CV                S
                      KCal/Mol        Cal/Mol-Kelvin    Cal/Mol-Kelvin
 Total                  165.318             41.421            100.189
 Electronic               0.000              0.000              0.000
 Translational            0.889              2.981             42.123
 Rotational               0.889              2.981             33.074
 Vibrational            163.541             35.460             24.992
 Vibration     1          0.607              1.938              3.205
 Vibration     2          0.613              1.921              2.907
 Vibration     3          0.622              1.890              2.535
 Vibration     4          0.633              1.855              2.237
 Vibration     5          0.659              1.772              1.772
 Vibration     6          0.677              1.720              1.564
 Vibration     7          0.758              1.491              0.999
 Vibration     8          0.763              1.478              0.977
 Vibration     9          0.772              1.453              0.935
 Vibration    10          0.798              1.388              0.834
 Vibration    11          0.823              1.325              0.749
 Vibration    12          0.841              1.284              0.697
 Vibration    13          0.869              1.218              0.623
 Vibration    14          0.933              1.082              0.491
 Vibration    15          0.962              1.024              0.443
 Vibration    16          0.977              0.995              0.420

 Normal termination of Gaussian 16 at Mon Mar  6 11:03:18 2023.
