 Gaussian 16, Revision C.01,
 Gaussian 16:  ES64L-G16RevC.01  3-Jul-2019

 ----------------------------------------------------------------------
 #p pop=(regular,nbo,savenbos) freq=noraman def2svp empiricaldispersion
 =gd3bj output=wfx pbe1pbe
 ----------------------------------------------------------------------

 ----------------------------------------
 QAQJUQ_Complex_4_Ligand_1_ON_Cu_oriented
 ----------------------------------------
 Symbolic Z-matrix:
 Charge = -1 Multiplicity = 1

                         Standard orientation:
 ---------------------------------------------------------------------
 Center     Atomic      Atomic             Coordinates (Angstroms)
 Number     Number       Type             X           Y           Z
 ---------------------------------------------------------------------
      1          8           0        1.056680    0.366884   -1.723728
      2          8           0        1.170216    1.540330    0.291929
      3          6           0       -2.777886    0.395319    1.131030
      4          6           0        0.739368    0.322765   -0.381905
      5          6           0       -0.762420    0.115554   -0.180135
      6          6           0       -3.498223   -0.357658    0.217253
      7          1           0       -4.407029   -0.506491    0.347005
      8          6           0       -1.418066    0.636642    0.937568
      9          6           0       -1.495580   -0.648841   -1.087890
     10          1           0       -1.072137   -1.004957   -1.835500
     11          6           0       -2.856747   -0.888122   -0.891305
     12          1           0       -3.332119   -1.402754   -1.502896
     13          6           0        0.734890    2.736292   -0.363407
     14          1           0        1.145886    2.794198   -1.228807
     15          1           0        0.986280    3.498504    0.162179
     16          7           0        2.993026   -0.483070   -0.086122
     17          1           0        3.346744    0.104572    0.480559
     18          1           0        3.488163   -1.223000   -0.068863
     19          6           0        1.586012   -0.796880    0.310738
     20          6           0        1.257950   -2.169832   -0.278001
     21          1           0        1.838597   -2.830335    0.108036
     22          1           0        0.344834   -2.392813   -0.081134
     23          1           0        1.384346   -2.148371   -1.229263
     24          6           0        1.435587   -0.825027    1.832663
     25          1           0        1.658490    0.036392    2.192143
     26          1           0        2.025306   -1.486918    2.200652
     27          1           0       -0.946668    1.146337    1.555834
     28          1           0       -0.220165    2.717136   -0.463199
     29          1           0       -3.204358    0.743042    1.880418
     30          1           0        0.528163   -1.042034    2.060429
 ---------------------------------------------------------------------

 SCF Done:  E(RPBE1PBE) =  -632.518954194     A.U. after   19 cycles

 The electronic state is 1-A.
 Alpha  occ. eigenvalues --  -19.01441 -18.88243 -14.16765 -10.11012 -10.08796
 Alpha  occ. eigenvalues --  -10.08214 -10.08141 -10.08025 -10.07447 -10.07012
 Alpha  occ. eigenvalues --  -10.06715 -10.06367 -10.02883 -10.02525  -0.85524
 Alpha  occ. eigenvalues --   -0.75966  -0.73543  -0.69537  -0.64002  -0.63321
 Alpha  occ. eigenvalues --   -0.62300  -0.58766  -0.56667  -0.50119  -0.49806
 Alpha  occ. eigenvalues --   -0.46433  -0.42850  -0.38824  -0.37175  -0.35068
 Alpha  occ. eigenvalues --   -0.33874  -0.32481  -0.31886  -0.31464  -0.30956
 Alpha  occ. eigenvalues --   -0.29804  -0.29017  -0.27994  -0.27473  -0.24261
 Alpha  occ. eigenvalues --   -0.24068  -0.23466  -0.22526  -0.20537  -0.18684
 Alpha  occ. eigenvalues --   -0.17653  -0.13574  -0.12488  -0.11409  -0.08710
 Alpha  occ. eigenvalues --   -0.07026  -0.00127   0.01509
 Alpha virt. eigenvalues --    0.13794   0.14189   0.21465   0.22038   0.24359
 Alpha virt. eigenvalues --    0.25358   0.26714   0.27204   0.27990   0.28404
 Alpha virt. eigenvalues --    0.29604   0.29835   0.31279   0.31805   0.32632

 Mulliken charges:
               1
     1  O   -0.587435
     2  O   -0.479476
     3  C    0.081659
     4  C    0.280276
     5  C   -0.020517
     6  C    0.074705
     7  H   -0.132665
     8  C    0.091681
     9  C    0.117843
    10  H   -0.143327
    11  C    0.073382
    12  H   -0.130095
    13  C    0.420373
    14  H   -0.062635
    15  H   -0.078624
    16  N   -0.013957
    17  H    0.005923
    18  H   -0.002400
    19  C   -0.341645
    20  C    0.272933
    21  H   -0.082898
    22  H   -0.050814
    23  H   -0.037742
    24  C    0.286762
    25  H   -0.047177
    26  H   -0.090202
    27  H   -0.138345
    28  H   -0.075044
    29  H   -0.134107
    30  H   -0.056434
 Sum of Mulliken charges =  -1.00000

 Dipole moment (field-independent basis, Debye):
    X=             -2.8502    Y=             -1.3732    Z=              4.4720  Tot=              5.4779
 Quadrupole moment (field-independent basis, Debye-Ang):
   XX=            -98.9771   YY=            -88.4955   ZZ=            -98.4626
   XY=             -2.7092   XZ=              7.3999   YZ=              3.0144

  Exact polarizability:     148.385       6.349     109.243      -5.241      10.246     108.909
 Approx polarizability:     206.525      15.372     152.452     -16.436      25.112     180.997

 Summary of Natural Population Analysis:

                                       Natural Population
                Natural  -----------------------------------------------
    Atom  No    Charge         Core      Valence    Rydberg      Total
 -----------------------------------------------------------------------
      O    1   -0.93126      1.99982     6.92499    0.00645     8.93126
      O    2   -0.67829      1.99972     6.66670    0.01188     8.67829
      C    3   -0.19019      1.99911     4.17627    0.01481     6.19019
      C    4    0.57314      1.99873     3.36572    0.06240     5.42686
      C    5   -0.04507      1.99890     4.02242    0.02375     6.04507
      C    6   -0.21625      1.99912     4.20249    0.01465     6.21625
      H    7    0.15266      0.00000     0.84400    0.00333     0.84734
      C    8   -0.19157      1.99898     4.17510    0.01748     6.19157
      C    9   -0.15133      1.99897     4.13329    0.01908     6.15133
      H   10    0.18214      0.00000     0.80955    0.00831     0.81786
      C   11   -0.19335      1.99910     4.17931    0.01494     6.19335
      H   12    0.15460      0.00000     0.84219    0.00321     0.84540
      C   13   -0.14815      1.99892     4.13728    0.01194     6.14815
      H   14    0.15832      0.00000     0.83317    0.00851     0.84168
      H   15    0.13499      0.00000     0.86223    0.00278     0.86501
      N   16   -0.78329      1.99937     5.75837    0.02555     7.78329
      H   17    0.31117      0.00000     0.68157    0.00726     0.68883
      H   18    0.29842      0.00000     0.69535    0.00623     0.70158
      C   19    0.15574      1.99896     3.82211    0.02319     5.84426
      C   20   -0.56753      1.99910     4.55562    0.01281     6.56753
      H   21    0.16406      0.00000     0.83207    0.00387     0.83594
      H   22    0.18592      0.00000     0.81145    0.00263     0.81408
      H   23    0.20497      0.00000     0.78621    0.00882     0.79503
      C   24   -0.58562      1.99911     4.57277    0.01375     6.58562
      H   25    0.19204      0.00000     0.80331    0.00465     0.80796
      H   26    0.16574      0.00000     0.82884    0.00542     0.83426
      H   27    0.17277      0.00000     0.82147    0.00576     0.82723
      H   28    0.13765      0.00000     0.85780    0.00454     0.86235
      H   29    0.15280      0.00000     0.84377    0.00342     0.84720
      H   30    0.18475      0.00000     0.81195    0.00330     0.81525
 =======================================================================
   * Total *   -1.00000     27.98791    77.65738    0.35472   106.00000

 ******   22 imaginary frequencies (negative Signs) ******

                      1                      2                      3
                      A                      A                      A
 Frequencies --  -1665.9789             -1497.5009             -1475.6888
 Red. masses --      1.0384                 1.1374                 1.0885
 Frc consts  --      1.6981                 1.5027                 1.3965
 IR Inten    --     48.4588               171.1181                71.6700

                      4                      5                      6
                      A                      A                      A
 Frequencies --  -1425.0825             -1386.9004             -1379.9752
 Red. masses --      1.0102                 1.0091                 1.0114
 Frc consts  --      1.2087                 1.1436                 1.1347
 IR Inten    --      0.7086                 0.1021                 0.0351

                      7                      8                      9
                      A                      A                      A
 Frequencies --  -1368.6594             -1323.4847             -1249.9551
 Red. masses --      1.0667                 1.0382                 1.0240
 Frc consts  --      1.1772                 1.0715                 0.9426
 IR Inten    --      0.4543                 2.1917                 2.6129

                     10                     11                     12
                      A                      A                      A
 Frequencies --  -1196.9245             -1100.7874             -1037.1982
 Red. masses --      1.0449                 1.0545                 1.0541
 Frc consts  --      0.8819                 0.7528                 0.6681
 IR Inten    --      0.8351                 0.6273                 4.6789

                     13                     14                     15
                      A                      A                      A
 Frequencies --  -1030.5473             -1005.7205              -987.8707
 Red. masses --      1.0552                 1.0402                 1.0607
 Frc consts  --      0.6603                 0.6199                 0.6099
 IR Inten    --      9.5546                 8.2099                 1.8066

                     16                     17                     18
                      A                      A                      A
 Frequencies --   -982.3434              -951.2654              -918.2312
 Red. masses --      1.0248                 1.1338                 1.0930
 Frc consts  --      0.5827                 0.6045                 0.5430
 IR Inten    --      0.5273                 2.2829                12.2615

                     19                     20                     21
                      A                      A                      A
 Frequencies --   -891.2924              -862.2035              -774.1863
 Red. masses --      1.0935                 1.1042                 1.0620
 Frc consts  --      0.5118                 0.4836                 0.3750
 IR Inten    --      9.4440                 7.6877                16.9703

                     22                     23                     24
                      A                      A                      A
 Frequencies --   -767.5453               125.6489               140.7660
 Red. masses --      1.0945                 1.2601                 4.5473
 Frc consts  --      0.3799                 0.0117                 0.0531
 IR Inten    --      7.6281                32.0668                 5.0157

                     25                     26                     27
                      A                      A                      A
 Frequencies --    194.9396               243.7390               252.0890
 Red. masses --      7.1919                 1.5363                 3.0318
 Frc consts  --      0.1610                 0.0538                 0.1135
 IR Inten    --      2.1644                21.6424                 4.1610

                     28                     29                     30
                      A                      A                      A
 Frequencies --    258.9907               313.3438               337.1394
 Red. masses --      5.1329                 8.2845                 6.9898
 Frc consts  --      0.2029                 0.4792                 0.4681
 IR Inten    --      0.4535                 4.6875                 3.9096

                     31                     32                     33
                      A                      A                      A
 Frequencies --    367.6289               398.3113               424.7013
 Red. masses --      7.2465                 7.1822                 4.6561
 Frc consts  --      0.5770                 0.6714                 0.4948
 IR Inten    --      9.0198                 8.4150                 1.5313

                     34                     35                     36
                      A                      A                      A
 Frequencies --    461.8596               514.7022               518.4649
 Red. masses --      4.6542                 1.9830                 5.8991
 Frc consts  --      0.5849                 0.3095                 0.9343
 IR Inten    --      3.6843                20.1440                 6.3362

                     37                     38                     39
                      A                      A                      A
 Frequencies --    548.8327               573.4054               605.5908
 Red. masses --     10.1616                 6.8416                 5.4092
 Frc consts  --      1.8034                 1.3254                 1.1688
 IR Inten    --      0.0397                 4.8046                 9.7016

                     40                     41                     42
                      A                      A                      A
 Frequencies --    635.7044               644.7062               658.2199
 Red. masses --      5.5421                 5.0780                 6.4311
 Frc consts  --      1.3196                 1.2436                 1.6416
 IR Inten    --      2.8046                 5.5079                 9.2076

                     43                     44                     45
                      A                      A                      A
 Frequencies --    721.2940               737.7934               769.6055
 Red. masses --      4.3661                 4.4594                 5.3736
 Frc consts  --      1.3383                 1.4302                 1.8752
 IR Inten    --     11.0608                 0.6509                20.5368

                     46                     47                     48
                      A                      A                      A
 Frequencies --    798.3209               813.3463               834.4112
 Red. masses --      2.6801                 1.8628                 5.0102
 Frc consts  --      1.0064                 0.7260                 2.0553
 IR Inten    --     34.0055                11.4249                 5.8973

                     49                     50                     51
                      A                      A                      A
 Frequencies --    930.5666               936.6391               955.4192
 Red. masses --      1.1346                 1.4157                 1.7609
 Frc consts  --      0.5789                 0.7318                 0.9471
 IR Inten    --     27.7460                33.6324                57.1313

                     52                     53                     54
                      A                      A                      A
 Frequencies --    968.0399               977.9216               996.5252
 Red. masses --      1.2677                 1.1300                 1.7113
 Frc consts  --      0.6999                 0.6367                 1.0013
 IR Inten    --     25.8428                18.2856                44.3046

                     55                     56                     57
                      A                      A                      A
 Frequencies --   1017.7033              1034.2636              1051.8339
 Red. masses --      1.7885                 4.4605                 5.5377
 Frc consts  --      1.0914                 2.8112                 3.6098
 IR Inten    --      7.6251                19.9862                42.3588

                     58                     59                     60
                      A                      A                      A
 Frequencies --   1065.8721              1131.8742              1185.4628
 Red. masses --      1.4336                 3.8323                 4.6871
 Frc consts  --      0.9596                 2.8927                 3.8809
 IR Inten    --     77.3694               116.0983                37.7772

                     61                     62                     63
                      A                      A                      A
 Frequencies --   1202.1913              1255.7332              1279.3563
 Red. masses --      6.4182                 4.5915                 6.0254
 Frc consts  --      5.4653                 4.2658                 5.8106
 IR Inten    --     13.3629                 7.3443                 4.5198

                     64                     65                     66
                      A                      A                      A
 Frequencies --   1349.2056              1400.8025              1412.0390
 Red. masses --      8.3229                 9.4045                 8.6956
 Frc consts  --      8.9265                10.8728                10.2151
 IR Inten    --      0.5560                 0.3820                 2.9916

                     67                     68                     69
                      A                      A                      A
 Frequencies --   1609.1615              1648.7202              4460.9055
 Red. masses --     10.4751                10.1161                 1.0318
 Frc consts  --     15.9812                16.2016                12.0977
 IR Inten    --      6.0866                 1.7166                10.8994

                     70                     71                     72
                      A                      A                      A
 Frequencies --   4462.7580              4466.0540              4659.3372
 Red. masses --      1.0321                 1.0303                 1.1061
 Frc consts  --     12.1111                12.1081                14.1477
 IR Inten    --     46.9017                54.6328                12.6955

                     73                     74                     75
                      A                      A                      A
 Frequencies --   4662.3477              4664.6237              4675.6349
 Red. masses --      1.1063                 1.1070                 1.1071
 Frc consts  --     14.1682                14.1921                14.2598
 IR Inten    --     31.5063                22.7264                 8.9749

                     76                     77                     78
                      A                      A                      A
 Frequencies --   4675.7039              4678.4453              5018.1247
 Red. masses --      1.1064                 1.1064                 1.0861
 Frc consts  --     14.2515                14.2677                16.1133
 IR Inten    --      5.6432                 1.6376                 0.1577

                     79                     80                     81
                      A                      A                      A
 Frequencies --   5028.1301              5034.7564              5042.3910
 Red. masses --      1.0879                 1.0898                 1.0896
 Frc consts  --     16.2048                16.2763                16.3228
 IR Inten    --     10.0761                 7.0531                 1.8294

                     82                     83                     84
                      A                      A                      A
 Frequencies --   5043.7405              5262.3954              5404.8814
 Red. masses --      1.0911                 1.0502                 1.0952
 Frc consts  --     16.3540                17.1351                18.8506
 IR Inten    --      7.8669                 1.5569                 2.6068

 - Thermochemistry -
 -------------------
 Temperature   298.150 Kelvin.  Pressure   1.00000 Atm.
 Atom     1 has atomic number  8 and mass  15.99491

 Molecular mass:   194.11810 amu.
 Principal axes and moments of inertia in atomic units:
                           1         2         3
     Eigenvalues --  1643.359553227.383653624.57563
           X            0.99986  -0.01317   0.01054
           Y            0.01317   0.99991   0.00022
           Z           -0.01055  -0.00008   0.99994
 This molecule is an asymmetric top.
 Rotational symmetry number  1.
 Warning -- assumption of classical behavior for rotation
           may cause significant error
 Rotational temperatures (Kelvin)      0.05271     0.02684     0.02390
 Rotational constants (GHZ):           1.09820     0.55920     0.49792
   22 imaginary frequencies ignored.
 Zero-point vibrational energy     679138.7 (Joules/Mol)
                                  162.31803 (Kcal/Mol)
 Warning -- explicit consideration of  17 degrees of freedom as
           vibrations may cause significant error
 Vibrational temperatures:    180.78   202.53   280.47   350.69   362.70
          (Kelvin)            372.63   450.83   485.07   528.94   573.08
                              611.05   664.51   740.54   745.96   789.65
                              825.00   871.31   914.64   927.59   947.03
                             1037.78  1061.52  1107.29  1148.61  1170.22
                             1200.53  1338.88  1347.61  1374.64  1392.79
                             1407.01  1433.78  1464.25  1488.07  1513.35
                             1533.55  1628.51  1705.62  1729.69  1806.72
                             1840.71  1941.21  2015.44  2031.61  2315.22
                             2372.14  6418.25  6420.91  6425.66  6703.75
                             6708.08  6711.35  6727.20  6727.30  6731.24
                             7219.96  7234.36  7243.89  7254.88  7256.82
                             7571.41  7776.42

 Zero-point correction=                           0.258670 (Hartree/Particle)
 Thermal correction to Energy=                    0.269206
 Thermal correction to Enthalpy=                  0.270151
 Thermal correction to Gibbs Free Energy=         0.223159
 Sum of electronic and zero-point Energies=           -632.260284
 Sum of electronic and thermal Energies=              -632.249748
 Sum of electronic and thermal Enthalpies=            -632.248804
 Sum of electronic and thermal Free Energies=         -632.295795

                     E (Thermal)             CV                S
                      KCal/Mol        Cal/Mol-Kelvin    Cal/Mol-Kelvin
 Total                  168.930             43.854             98.903
 Electronic               0.000              0.000              0.000
 Translational            0.889              2.981             41.695
 Rotational               0.889              2.981             31.331
 Vibrational            167.152             37.892             25.877
 Vibration     1          0.611              1.927              3.012
 Vibration     2          0.615              1.913              2.793
 Vibration     3          0.636              1.847              2.180
 Vibration     4          0.659              1.773              1.775
 Vibration     5          0.664              1.759              1.716
 Vibration     6          0.668              1.748              1.669
 Vibration     7          0.701              1.648              1.345
 Vibration     8          0.718              1.601              1.226
 Vibration     9          0.740              1.539              1.090
 Vibration    10          0.765              1.474              0.969
 Vibration    11          0.787              1.417              0.876
 Vibration    12          0.820              1.335              0.761
 Vibration    13          0.870              1.217              0.622
 Vibration    14          0.873              1.209              0.614
 Vibration    15          0.904              1.142              0.547
 Vibration    16          0.930              1.089              0.498
 Vibration    17          0.964              1.020              0.440

 Normal termination of Gaussian 16 at Mon Mar  6 10:55:40 2023.
