 Gaussian 16, Revision C.01,
 Gaussian 16:  ES64L-G16RevC.01  3-Jul-2019

 ----------------------------------------------------------------------
 #p pop=(regular,nbo,savenbos) freq=noraman def2svp empiricaldispersion
 =gd3bj output=wfx pbe1pbe
 ----------------------------------------------------------------------

 ----------------------------------------
 QEQYAM_Complex_0_Ligand_0_NN_Cu_oriented
 ----------------------------------------
 Symbolic Z-matrix:
 Charge =  0 Multiplicity = 1

                         Standard orientation:
 ---------------------------------------------------------------------
 Center     Atomic      Atomic             Coordinates (Angstroms)
 Number     Number       Type             X           Y           Z
 ---------------------------------------------------------------------
      1          8           0        0.037067   -1.638571   -0.006845
      2          7           0       -0.014334    2.183637   -1.289146
      3          6           0        0.025251   -0.439305   -0.005834
      4          6           0       -1.267464    0.413480   -0.003497
      5          6           0        1.259202    0.439489    0.031528
      6          6           0       -1.196733    1.284585   -1.262364
      7          1           0       -1.171453    0.708455   -2.042222
      8          1           0       -2.003638    1.822190   -1.317431
      9          6           0        1.228512    1.360137   -1.201477
     10          1           0        1.997386    1.950853   -1.170800
     11          1           0        1.304558    0.817136   -2.001310
     12          6           0       -1.260553    1.239772    1.285692
     13          1           0       -2.027009    1.834986    1.278716
     14          1           0       -1.359476    0.641528    2.041281
     15          6           0        1.190830    1.212018    1.331133
     16          1           0        1.229072    0.585440    2.070138
     17          6           0       -0.028127    2.935426   -2.562550
     18          1           0        0.042472    2.322340   -3.298070
     19          1           0        0.712979    3.544857   -2.582856
     20          1           0       -0.847957    3.428109   -2.635532
     21          6           0        2.533280   -0.463101   -0.043489
     22          6           0        2.871339   -1.063858   -1.206128
     23          1           0        2.357254   -0.913418   -1.966495
     24          6           0        3.966548   -1.895057   -1.279366
     25          1           0        4.181949   -2.302526   -2.087098
     26          6           0        4.737991   -2.126620   -0.185242
     27          1           0        5.474180   -2.693664   -0.236745
     28          6           0        4.425468   -1.532404    0.957171
     29          1           0        4.957775   -1.680786    1.704192
     30          6           0        3.316052   -0.685929    1.064855
     31          1           0        3.110335   -0.280799    1.876310
     32          6           0       -2.499925   -0.492504   -0.019837
     33          6           0       -3.388570   -0.507623   -1.071458
     34          1           0       -3.256169    0.056929   -1.798401
     35          6           0       -4.502888   -1.375096   -1.052319
     36          1           0       -5.087205   -1.398719   -1.774308
     37          6           0       -4.714456   -2.169852    0.012410
     38          1           0       -5.451835   -2.736828    0.021607
     39          6           0       -3.863777   -2.154244    1.081715
     40          1           0       -4.036798   -2.682765    1.827908
     41          6           0       -2.739994   -1.344349    1.045707
     42          1           0       -2.133739   -1.373515    1.750765
     43          7           0       -0.036181    2.044462    1.472249
     44          6           0       -0.049828    2.651856    2.816402
     45          1           0       -0.113174    1.961099    3.478725
     46          1           0       -0.803716    3.239380    2.893021
     47          1           0        0.760414    3.151631    2.949628
     48          1           0        1.967915    1.789024    1.393702
 ---------------------------------------------------------------------

 SCF Done:  E(RPBE1PBE) =  -997.090589505     A.U. after   15 cycles

 The electronic state is 1-A.
 Alpha  occ. eigenvalues --  -19.20076 -14.37466 -14.37194 -10.31450 -10.25487
 Alpha  occ. eigenvalues --  -10.25349 -10.23665 -10.23645 -10.23560 -10.23434
 Alpha  occ. eigenvalues --  -10.23380 -10.23260 -10.21520 -10.21386 -10.21183
 Alpha  occ. eigenvalues --  -10.21147 -10.21074 -10.21006 -10.20995 -10.20907
 Alpha  occ. eigenvalues --  -10.20893 -10.20845 -10.20569 -10.20385  -1.06643
 Alpha  occ. eigenvalues --   -0.95685  -0.92992  -0.89398  -0.88576  -0.83826
 Alpha  occ. eigenvalues --   -0.83293  -0.77922  -0.77436  -0.77147  -0.76358
 Alpha  occ. eigenvalues --   -0.74631  -0.74307  -0.70794  -0.66485  -0.65597
 Alpha  occ. eigenvalues --   -0.64879  -0.64047  -0.62422  -0.62203  -0.60450
 Alpha  occ. eigenvalues --   -0.56747  -0.55823  -0.54862  -0.51057  -0.50723
 Alpha  occ. eigenvalues --   -0.50617  -0.50455  -0.49532  -0.49308  -0.47930
 Alpha  occ. eigenvalues --   -0.47746  -0.46619  -0.46469  -0.46070  -0.44994
 Alpha  occ. eigenvalues --   -0.44859  -0.44712  -0.44055  -0.42999  -0.42922
 Alpha  occ. eigenvalues --   -0.42652  -0.41777  -0.40584  -0.39337  -0.38860
 Alpha  occ. eigenvalues --   -0.38548  -0.38268  -0.37950  -0.37633  -0.37196
 Alpha  occ. eigenvalues --   -0.35472  -0.34402  -0.33886  -0.33557  -0.26869
 Alpha  occ. eigenvalues --   -0.26485  -0.26195  -0.25855  -0.24663  -0.23983
 Alpha  occ. eigenvalues --   -0.19677
 Alpha virt. eigenvalues --   -0.00894  -0.00112   0.00042   0.00528   0.01433
 Alpha virt. eigenvalues --    0.07080   0.09249   0.10397   0.10601   0.11486
 Alpha virt. eigenvalues --    0.11703   0.12335   0.12747   0.13202   0.14066

 Mulliken charges:
               1
     1  O   -0.170166
     2  N   -0.465109
     3  C    0.136902
     4  C   -0.404971
     5  C   -0.397654
     6  C    0.390760
     7  H   -0.049913
     8  H   -0.025163
     9  C    0.403122
    10  H   -0.032521
    11  H   -0.054470
    12  C    0.429636
    13  H   -0.034203
    14  H   -0.064110
    15  C    0.403467
    16  H   -0.042298
    17  C    0.331948
    18  H   -0.060872
    19  H   -0.025559
    20  H   -0.028495
    21  C    0.119100
    22  C    0.059460
    23  H   -0.128232
    24  C    0.112785
    25  H   -0.101913
    26  C    0.116628
    27  H   -0.102030
    28  C    0.120079
    29  H   -0.103771
    30  C    0.061873
    31  H   -0.125957
    32  C    0.088317
    33  C    0.061688
    34  H   -0.122053
    35  C    0.115091
    36  H   -0.103154
    37  C    0.113326
    38  H   -0.097523
    39  C    0.104904
    40  H   -0.099988
    41  C    0.074458
    42  H   -0.113043
    43  N   -0.474321
    44  C    0.329518
    45  H   -0.060365
    46  H   -0.025965
    47  H   -0.027706
    48  H   -0.031535
 Sum of Mulliken charges =  -0.00000

 Dipole moment (field-independent basis, Debye):
    X=              0.1586    Y=              1.7620    Z=             -0.0260  Tot=              1.7694
 Quadrupole moment (field-independent basis, Debye-Ang):
   XX=           -131.6145   YY=           -143.9397   ZZ=           -126.5449
   XY=             -0.4343   XZ=              1.8621   YZ=             -1.3345

  Exact polarizability:     238.403      -1.172     185.991       9.791      -3.094     191.605
 Approx polarizability:     307.749      -3.272     279.918      22.812      -7.523     309.072

 Summary of Natural Population Analysis:

                                       Natural Population
                Natural  -----------------------------------------------
    Atom  No    Charge         Core      Valence    Rydberg      Total
 -----------------------------------------------------------------------
      O    1   -0.53940      1.99970     6.52797    0.01173     8.53940
      N    2   -0.53001      1.99945     5.51652    0.01405     7.53001
      C    3    0.63178      1.99904     3.31225    0.05693     5.36822
      C    4   -0.15417      1.99890     4.13634    0.01894     6.15417
      C    5   -0.15585      1.99889     4.13807    0.01889     6.15585
      C    6   -0.15733      1.99898     4.13738    0.02096     6.15733
      H    7    0.16603      0.00000     0.82802    0.00594     0.83397
      H    8    0.19562      0.00000     0.80076    0.00362     0.80438
      C    9   -0.13987      1.99898     4.11958    0.02132     6.13987
      H   10    0.19566      0.00000     0.80112    0.00323     0.80434
      H   11    0.16228      0.00000     0.83275    0.00497     0.83772
      C   12   -0.13925      1.99898     4.11881    0.02146     6.13925
      H   13    0.19554      0.00000     0.80105    0.00341     0.80446
      H   14    0.16307      0.00000     0.83199    0.00494     0.83693
      C   15   -0.15534      1.99897     4.13531    0.02106     6.15534
      H   16    0.16531      0.00000     0.82889    0.00580     0.83469
      C   17   -0.30915      1.99912     4.29869    0.01135     6.30915
      H   18    0.14704      0.00000     0.84763    0.00534     0.85296
      H   19    0.18049      0.00000     0.81730    0.00221     0.81951
      H   20    0.17963      0.00000     0.81815    0.00222     0.82037
      C   21   -0.01425      1.99901     3.98993    0.02532     6.01425
      C   22   -0.17406      1.99894     4.15937    0.01575     6.17406
      H   23    0.17294      0.00000     0.82325    0.00381     0.82706
      C   24   -0.14141      1.99910     4.12762    0.01469     6.14141
      H   25    0.16854      0.00000     0.82835    0.00310     0.83146
      C   26   -0.17999      1.99907     4.16670    0.01422     6.17999
      H   27    0.17290      0.00000     0.82387    0.00323     0.82710
      C   28   -0.15102      1.99908     4.13729    0.01465     6.15102
      H   29    0.16841      0.00000     0.82836    0.00324     0.83159
      C   30   -0.17179      1.99897     4.15834    0.01448     6.17179
      H   31    0.17026      0.00000     0.82642    0.00332     0.82974
      C   32   -0.02988      1.99902     4.00678    0.02409     6.02988
      C   33   -0.17115      1.99896     4.15810    0.01409     6.17115
      H   34    0.16857      0.00000     0.82819    0.00324     0.83143
      C   35   -0.15411      1.99909     4.14058    0.01443     6.15411
      H   36    0.16865      0.00000     0.82829    0.00306     0.83135
      C   37   -0.17623      1.99908     4.16307    0.01407     6.17623
      H   38    0.16991      0.00000     0.82684    0.00325     0.83009
      C   39   -0.15171      1.99910     4.13824    0.01438     6.15171
      H   40    0.17023      0.00000     0.82675    0.00302     0.82977
      C   41   -0.15457      1.99900     4.13944    0.01613     6.15457
      H   42    0.17258      0.00000     0.82366    0.00377     0.82742
      N   43   -0.52970      1.99943     5.51639    0.01387     7.52970
      C   44   -0.30898      1.99912     4.29851    0.01135     6.30898
      H   45    0.14632      0.00000     0.84821    0.00547     0.85368
      H   46    0.18031      0.00000     0.81745    0.00224     0.81969
      H   47    0.17987      0.00000     0.81790    0.00223     0.82013
      H   48    0.19733      0.00000     0.79912    0.00355     0.80267
 =======================================================================
   * Total *   -0.00000     47.97797   123.49560    0.52643   172.00000

 ******   36 imaginary frequencies (negative Signs) ******

                      1                      2                      3
                      A                      A                      A
 Frequencies --  -1463.4123             -1458.1222             -1396.8385
 Red. masses --      1.0829                 1.0823                 1.0085
 Frc consts  --      1.3664                 1.3558                 1.1593
 IR Inten    --     67.1013                64.9616                 0.0233

                      4                      5                      6
                      A                      A                      A
 Frequencies --  -1395.6754             -1367.5452             -1361.1617
 Red. masses --      1.0089                 1.0455                 1.0473
 Frc consts  --      1.1579                 1.1520                 1.1432
 IR Inten    --      0.0743                 0.3375                 0.0786

                      7                      8                      9
                      A                      A                      A
 Frequencies --  -1307.3245             -1298.4545             -1247.6400
 Red. masses --      1.0345                 1.0342                 1.0208
 Frc consts  --      1.0417                 1.0274                 0.9362
 IR Inten    --      0.3982                 0.2079                 0.1864

                     10                     11                     12
                      A                      A                      A
 Frequencies --  -1234.6132             -1164.2971             -1149.2153
 Red. masses --      1.0190                 1.0351                 1.0338
 Frc consts  --      0.9151                 0.8267                 0.8044
 IR Inten    --      0.1363                 0.0642                 0.1360

                     13                     14                     15
                      A                      A                      A
 Frequencies --  -1062.9520             -1057.0944             -1035.0200
 Red. masses --      1.0457                 1.0380                 1.0273
 Frc consts  --      0.6961                 0.6834                 0.6484
 IR Inten    --      2.1176                 2.5623                 1.9651

                     16                     17                     18
                      A                      A                      A
 Frequencies --  -1026.4714              -928.8862              -925.8346
 Red. masses --      1.0308                 1.0525                 1.0644
 Frc consts  --      0.6399                 0.5350                 0.5376
 IR Inten    --      2.2772                 5.1040                 2.8222

                     19                     20                     21
                      A                      A                      A
 Frequencies --   -922.1192              -920.8964              -917.5547
 Red. masses --      1.0699                 1.0692                 1.0572
 Frc consts  --      0.5360                 0.5342                 0.5244
 IR Inten    --      1.2023                 1.3214                 2.2308

                     22                     23                     24
                      A                      A                      A
 Frequencies --   -896.1135              -893.1546              -875.0602
 Red. masses --      1.0655                 1.1532                 1.1683
 Frc consts  --      0.5041                 0.5420                 0.5271
 IR Inten    --      0.5987                 0.0478                 0.7139

                     25                     26                     27
                      A                      A                      A
 Frequencies --   -803.8057              -790.5467              -730.8431
 Red. masses --      1.1013                 1.1050                 1.1231
 Frc consts  --      0.4193                 0.4069                 0.3534
 IR Inten    --      6.6585                10.3680                 7.6009

                     28                     29                     30
                      A                      A                      A
 Frequencies --   -717.9842              -688.4249              -659.7368
 Red. masses --      1.1329                 1.0458                 1.0476
 Frc consts  --      0.3441                 0.2920                 0.2686
 IR Inten    --      9.6226                20.8051                21.4093

                     31                     32                     33
                      A                      A                      A
 Frequencies --   -417.3468              -374.4402              -368.7060
 Red. masses --      1.6614                 1.4683                 1.5021
 Frc consts  --      0.1705                 0.1213                 0.1203
 IR Inten    --      1.0181                 0.9175                 0.3907

                     34                     35                     36
                      A                      A                      A
 Frequencies --   -289.6456              -173.8222              -151.8594
 Red. masses --      1.4804                 1.6277                 2.2002
 Frc consts  --      0.0732                 0.0290                 0.0299
 IR Inten    --      0.0257                 0.0130                 0.1183

                     37                     38                     39
                      A                      A                      A
 Frequencies --     69.3327                92.2339               121.8333
 Red. masses --     12.7951                 6.7814                 7.2094
 Frc consts  --      0.0362                 0.0340                 0.0630
 IR Inten    --      1.2916                 0.0192                 0.0339

                     40                     41                     42
                      A                      A                      A
 Frequencies --    158.0914               177.8490               220.5705
 Red. masses --      2.5248                 3.2461                 4.3404
 Frc consts  --      0.0372                 0.0605                 0.1244
 IR Inten    --      0.4740                 0.1789                 5.3020

                     43                     44                     45
                      A                      A                      A
 Frequencies --    284.5723               304.1493               313.1416
 Red. masses --      7.1824                 6.8578                 7.4076
 Frc consts  --      0.3427                 0.3738                 0.4280
 IR Inten    --      0.3921                 3.0545                 0.8911

                     46                     47                     48
                      A                      A                      A
 Frequencies --    365.7162               372.7157               400.4186
 Red. masses --      3.2825                 4.6768                 2.5477
 Frc consts  --      0.2587                 0.3828                 0.2407
 IR Inten    --      3.9185                 3.8526                 0.1406

                     49                     50                     51
                      A                      A                      A
 Frequencies --    426.2328               448.0448               455.3922
 Red. masses --      1.6708                 4.0356                 3.0552
 Frc consts  --      0.1788                 0.4773                 0.3733
 IR Inten    --      0.9175                 4.1703                 3.0827

                     52                     53                     54
                      A                      A                      A
 Frequencies --    514.0020               521.3515               526.6119
 Red. masses --      3.1687                 3.5654                 6.4474
 Frc consts  --      0.4933                 0.5710                 1.0535
 IR Inten    --     13.2344                 0.1157                 0.1816

                     55                     56                     57
                      A                      A                      A
 Frequencies --    530.7192               535.7304               539.8097
 Red. masses --      1.3026                 1.3225                 3.9482
 Frc consts  --      0.2162                 0.2236                 0.6778
 IR Inten    --      2.0838                 2.5239                 1.9538

                     58                     59                     60
                      A                      A                      A
 Frequencies --    548.5266               560.0328               568.9906
 Red. masses --     10.1397                 2.7584                 5.9378
 Frc consts  --      1.7975                 0.5097                 1.1326
 IR Inten    --      0.0141                 0.0067                 0.9174

                     61                     62                     63
                      A                      A                      A
 Frequencies --    583.2111               593.0359               596.5426
 Red. masses --      6.8806                 5.4750                 5.2913
 Frc consts  --      1.3789                 1.1345                 1.1094
 IR Inten    --      0.3066                 0.2421                 0.1991

                     64                     65                     66
                      A                      A                      A
 Frequencies --    650.3654               664.7257               686.8691
 Red. masses --      4.9678                 3.7134                 2.8458
 Frc consts  --      1.2380                 0.9667                 0.7911
 IR Inten    --      9.9249                 0.0607                 0.3280

                     67                     68                     69
                      A                      A                      A
 Frequencies --    733.6190               751.2908               755.7976
 Red. masses --      6.5094                 5.4533                 4.3614
 Frc consts  --      2.0641                 1.8135                 1.4679
 IR Inten    --      0.0169                23.3253                 4.8947

                     70                     71                     72
                      A                      A                      A
 Frequencies --    763.1740               770.5271               796.2363
 Red. masses --      4.0808                 3.7723                 5.3063
 Frc consts  --      1.4004                 1.3196                 1.9821
 IR Inten    --      4.3505                16.7087                10.0309

                     73                     74                     75
                      A                      A                      A
 Frequencies --    807.1661               825.7791               845.5253
 Red. masses --      7.5908                 5.8637                 3.9594
 Frc consts  --      2.9138                 2.3559                 1.6677
 IR Inten    --      2.0041                 1.3246                 1.2147

                     76                     77                     78
                      A                      A                      A
 Frequencies --    846.5128               877.7614               887.9627
 Red. masses --      6.9955                 4.9399                 5.5060
 Frc consts  --      2.9535                 2.2424                 2.5579
 IR Inten    --      0.3372                 6.0915                14.8306

                     79                     80                     81
                      A                      A                      A
 Frequencies --    904.5222               935.4246               945.0217
 Red. masses --      6.0639                 1.7133                 1.6095
 Frc consts  --      2.9231                 0.8833                 0.8469
 IR Inten    --      0.7562                 6.1590                 5.6055

                     82                     83                     84
                      A                      A                      A
 Frequencies --    966.1421               980.9733               996.2211
 Red. masses --      1.2484                 1.2038                 1.0553
 Frc consts  --      0.6866                 0.6825                 0.6171
 IR Inten    --      0.2236                 1.4909                 1.6050

                     85                     86                     87
                      A                      A                      A
 Frequencies --    998.6153              1009.0824              1012.1057
 Red. masses --      1.0474                 1.1154                 1.1900
 Frc consts  --      0.6154                 0.6692                 0.7182
 IR Inten    --      5.8537                 5.7573                 6.1320

                     88                     89                     90
                      A                      A                      A
 Frequencies --   1048.8905              1060.3951              1075.0083
 Red. masses --      4.6670                 6.4156                 2.4136
 Frc consts  --      3.0252                 4.2503                 1.6434
 IR Inten    --      9.9511                 1.1258                22.4895

                     91                     92                     93
                      A                      A                      A
 Frequencies --   1082.2902              1105.7476              1122.9430
 Red. masses --      1.5499                 3.1938                 5.4995
 Frc consts  --      1.0696                 2.3008                 4.0859
 IR Inten    --     24.3073                11.0995                 7.9371

                     94                     95                     96
                      A                      A                      A
 Frequencies --   1160.8352              1167.8815              1203.3192
 Red. masses --      4.8011                 5.6639                 7.2356
 Frc consts  --      3.8118                 4.5516                 6.1729
 IR Inten    --     16.4588                29.0319                 2.3154

                     97                     98                     99
                      A                      A                      A
 Frequencies --   1206.4187              1218.2820              1238.1956
 Red. masses --      6.2187                 4.7275                 4.4175
 Frc consts  --      5.3327                 4.1340                 3.9903
 IR Inten    --     19.2958                 4.5257                 8.1333

                    100                    101                    102
                      A                      A                      A
 Frequencies --   1245.7057              1251.3152              1278.0376
 Red. masses --      7.6044                 3.7157                 6.9858
 Frc consts  --      6.9526                 3.4279                 6.7229
 IR Inten    --      2.5848                 0.3823                 9.5811

                    103                    104                    105
                      A                      A                      A
 Frequencies --   1296.1075              1343.2390              1376.7114
 Red. masses --      6.4053                 8.2900                 8.3705
 Frc consts  --      6.3397                 8.8127                 9.3473
 IR Inten    --     95.6370                 0.5641                 0.1027

                    106                    107                    108
                      A                      A                      A
 Frequencies --   1472.3891              1482.3890              1510.9771
 Red. masses --      9.3211                 8.9958                 8.7419
 Frc consts  --     11.9059                11.6470                11.7590
 IR Inten    --      8.9695                 4.9111                 0.6508

                    109                    110                    111
                      A                      A                      A
 Frequencies --   1617.4278              1656.8809              1697.2568
 Red. masses --      9.0509                10.5191                10.4521
 Frc consts  --     13.9506                17.0142                17.7398
 IR Inten    --      1.3135                 5.8233                 6.8008

                    112                    113                    114
                      A                      A                      A
 Frequencies --   1762.0884              1844.9254              1895.7374
 Red. masses --     10.0315                10.1290                13.1716
 Frc consts  --     18.3515                20.3131                27.8897
 IR Inten    --      0.1218                 0.7768               145.0862

                    115                    116                    117
                      A                      A                      A
 Frequencies --   4400.3264              4408.7028              4413.8344
 Red. masses --      1.0590                 1.0595                 1.0592
 Frc consts  --     12.0813                12.1330                12.1583
 IR Inten    --     28.1622                26.8636                35.0439

                    118                    119                    120
                      A                      A                      A
 Frequencies --   4415.1413              4462.2688              4463.1203
 Red. masses --      1.0591                 1.0310                 1.0313
 Frc consts  --     12.1643                12.0948                12.1036
 IR Inten    --     19.2172                50.7625                24.3172

                    121                    122                    123
                      A                      A                      A
 Frequencies --   4520.4044              4529.7331              4533.1640
 Red. masses --      1.1094                 1.1088                 1.1093
 Frc consts  --     13.3561                13.4038                13.4314
 IR Inten    --     10.5391                12.1729                 7.0050

                    124                    125                    126
                      A                      A                      A
 Frequencies --   4535.2145              4659.0265              4659.8855
 Red. masses --      1.1092                 1.1069                 1.1076
 Frc consts  --     13.4420                14.1557                14.1701
 IR Inten    --      7.8954                15.9077                14.1261

                    127                    128                    129
                      A                      A                      A
 Frequencies --   4682.8475              4685.9226              5015.2215
 Red. masses --      1.1075                 1.1078                 1.0871
 Frc consts  --     14.3094                14.3321                16.1108
 IR Inten    --      4.7176                 2.9065                 0.0527

                    130                    131                    132
                      A                      A                      A
 Frequencies --   5018.5697              5025.5349              5027.4504
 Red. masses --      1.0867                 1.0885                 1.0887
 Frc consts  --     16.1262                16.1971                16.2125
 IR Inten    --      0.0636                 0.3074                 0.9471

                    133                    134                    135
                      A                      A                      A
 Frequencies --   5033.0684              5034.2298              5035.5729
 Red. masses --      1.0886                 1.0895                 1.0905
 Frc consts  --     16.2481                16.2679                16.2920
 IR Inten    --      0.2905                 0.0998                 0.2399

                    136                    137                    138
                      A                      A                      A
 Frequencies --   5036.9395              5044.9581              5050.5865
 Red. masses --      1.0913                 1.0924                 1.0916
 Frc consts  --     16.3134                16.3815                16.4064
 IR Inten    --      0.7941                 1.2851                 0.5524

 - Thermochemistry -
 -------------------
 Temperature   298.150 Kelvin.  Pressure   1.00000 Atm.
 Atom     1 has atomic number  8 and mass  15.99491

 Molecular mass:   320.18886 amu.
 Principal axes and moments of inertia in atomic units:
                           1         2         3
     Eigenvalues --  4936.45404********************
           X            1.00000  -0.00047   0.00171
           Y            0.00048   0.99998  -0.00572
           Z           -0.00171   0.00572   0.99998
 This molecule is an asymmetric top.
 Rotational symmetry number  1.
 Warning -- assumption of classical behavior for rotation
           may cause significant error
 Rotational temperatures (Kelvin)      0.01755     0.00857     0.00768
 Rotational constants (GHZ):           0.36559     0.17855     0.15997
   36 imaginary frequencies ignored.
 Zero-point vibrational energy    1084734.2 (Joules/Mol)
                                  259.25770 (Kcal/Mol)
 Warning -- explicit consideration of  27 degrees of freedom as
           vibrations may cause significant error
 Vibrational temperatures:     99.75   132.70   175.29   227.46   255.89
          (Kelvin)            317.35   409.44   437.60   450.54   526.18
                              536.25   576.11   613.25   644.64   655.21
                              739.53   750.11   757.68   763.59   770.80
                              776.67   789.21   805.76   818.65   839.11
                              853.25   858.29   935.73   956.39   988.25
                             1055.51  1080.94  1087.42  1098.04  1108.62
                             1145.61  1161.33  1188.11  1216.52  1217.94
                             1262.90  1277.58  1301.41  1345.87  1359.68
                             1390.06  1411.40  1433.34  1436.78  1451.84
                             1456.19  1509.12  1525.67  1546.70  1557.17
                             1590.92  1615.66  1670.18  1680.32  1731.31
                             1735.77  1752.84  1781.49  1792.29  1800.36
                             1838.81  1864.81  1932.62  1980.78  2118.44
                             2132.83  2173.96  2327.12  2383.88  2441.97
                             2535.25  2654.44  2727.54  6331.09  6343.14
                             6350.52  6352.40  6420.21  6421.43  6503.85
                             6517.28  6522.21  6525.16  6703.30  6704.54
                             6737.57  6742.00  7215.79  7220.60  7230.62
                             7233.38  7241.46  7243.13  7245.07  7247.03
                             7258.57  7266.67

 Zero-point correction=                           0.413153 (Hartree/Particle)
 Thermal correction to Energy=                    0.427358
 Thermal correction to Enthalpy=                  0.428302
 Thermal correction to Gibbs Free Energy=         0.372559
 Sum of electronic and zero-point Energies=           -996.677436
 Sum of electronic and thermal Energies=              -996.663232
 Sum of electronic and thermal Enthalpies=            -996.662287
 Sum of electronic and thermal Free Energies=         -996.718030

                     E (Thermal)             CV                S
                      KCal/Mol        Cal/Mol-Kelvin    Cal/Mol-Kelvin
 Total                  268.171             63.184            117.321
 Electronic               0.000              0.000              0.000
 Translational            0.889              2.981             43.187
 Rotational               0.889              2.981             34.686
 Vibrational            266.394             57.222             39.448
 Vibration     1          0.598              1.969              4.172
 Vibration     2          0.602              1.955              3.612
 Vibration     3          0.609              1.931              3.071
 Vibration     4          0.621              1.894              2.573
 Vibration     5          0.628              1.870              2.351
 Vibration     6          0.647              1.810              1.954
 Vibration     7          0.683              1.702              1.506
 Vibration     8          0.695              1.666              1.394
 Vibration     9          0.701              1.649              1.346
 Vibration    10          0.739              1.543              1.098
 Vibration    11          0.744              1.528              1.069
 Vibration    12          0.766              1.469              0.961
 Vibration    13          0.788              1.413              0.871
 Vibration    14          0.807              1.365              0.802
 Vibration    15          0.814              1.349              0.780
 Vibration    16          0.869              1.219              0.624
 Vibration    17          0.876              1.203              0.607
 Vibration    18          0.882              1.191              0.595
 Vibration    19          0.886              1.182              0.586
 Vibration    20          0.891              1.171              0.575
 Vibration    21          0.895              1.162              0.566
 Vibration    22          0.904              1.143              0.547
 Vibration    23          0.916              1.118              0.524
 Vibration    24          0.925              1.098              0.506
 Vibration    25          0.940              1.068              0.479
 Vibration    26          0.951              1.047              0.462
 Vibration    27          0.954              1.039              0.456

 Normal termination of Gaussian 16 at Sat Mar  4 14:04:07 2023.
