 Gaussian 16, Revision C.01,
 Gaussian 16:  ES64L-G16RevC.01  3-Jul-2019

 ----------------------------------------------------------------------
 #p pop=(regular,nbo,savenbos) freq=noraman def2svp empiricaldispersion
 =gd3bj output=wfx pbe1pbe
 ----------------------------------------------------------------------

 ----------------------------------------
 QERRAG_Complex_1_Ligand_2_NN_Cu_oriented
 ----------------------------------------
 Symbolic Z-matrix:
 Charge =  0 Multiplicity = 1

                         Standard orientation:
 ---------------------------------------------------------------------
 Center     Atomic      Atomic             Coordinates (Angstroms)
 Number     Number       Type             X           Y           Z
 ---------------------------------------------------------------------
      1          7           0       -1.728901    0.236399    0.023544
      2          7           0        0.057884    2.327148   -0.162086
      3          6           0       -0.295353   -0.041706   -0.352728
      4          1           0       -0.206557    0.056272   -1.323863
      5          6           0        0.199937   -1.432986    0.039316
      6          1           0        0.112923   -1.550573    0.998350
      7          6           0        1.665585   -1.619671   -0.369169
      8          6           0        0.581288    1.040281    0.331679
      9          1           0        0.490871    0.986052    1.305920
     10          6           0       -2.128355   -0.326321    1.324553
     11          1           0       -1.583626    0.051533    2.018300
     12          1           0       -2.013837   -1.278900    1.310145
     13          1           0       -3.050864   -0.118613    1.493998
     14          1           0        0.197358    2.397356   -1.402734
     15          1           0        0.525174    3.084275    0.304908
     16          6           0        2.510534   -0.560235    0.298020
     17          1           0        3.436103   -0.666379    0.027370
     18          1           0        2.465108   -0.668432    1.261178
     19          6           0        2.028814    0.827921   -0.077797
     20          1           0        2.112743    0.948769   -1.037273
     21          1           0        2.587287    1.491069    0.357533
     22          6           0       -2.617403   -0.383081   -1.001885
     23          1           0       -2.391211   -0.040320   -1.869346
     24          1           0       -2.499725   -1.335360   -0.993408
     25          1           0       -3.531668   -0.171589   -0.803314
     26          1           0        1.750265   -1.548188   -1.332589
     27          1           0        1.972121   -2.500332   -0.101291
     28          1           0       -0.345623   -2.106675   -0.396020
 ---------------------------------------------------------------------

 SCF Done:  E(RPBE1PBE) =  -424.118511299     A.U. after   13 cycles

 The electronic state is 1-A.
 Alpha  occ. eigenvalues --  -14.36180 -14.35483 -10.22959 -10.22938 -10.19405
 Alpha  occ. eigenvalues --  -10.19329 -10.19329 -10.19033 -10.19026 -10.18690
 Alpha  occ. eigenvalues --   -0.92267  -0.87525  -0.83302  -0.76729  -0.73762
 Alpha  occ. eigenvalues --   -0.73417  -0.67028  -0.62892  -0.61333  -0.59266
 Alpha  occ. eigenvalues --   -0.50778  -0.49283  -0.48833  -0.48103  -0.47216
 Alpha  occ. eigenvalues --   -0.44686  -0.43924  -0.42278  -0.41242  -0.40157
 Alpha  occ. eigenvalues --   -0.39388  -0.38142  -0.37134  -0.36523  -0.35547
 Alpha  occ. eigenvalues --   -0.34434  -0.33221  -0.30705  -0.22210  -0.19313
 Alpha virt. eigenvalues --    0.05041   0.08088   0.09475   0.09929   0.12593
 Alpha virt. eigenvalues --    0.13684   0.14083   0.14680   0.15307   0.16299
 Alpha virt. eigenvalues --    0.16890   0.17473   0.17906   0.19162   0.19813

 Mulliken charges:
               1
     1  N   -0.445969
     2  N   -0.271481
     3  C   -0.001905
     4  H   -0.058538
     5  C    0.117870
     6  H   -0.030126
     7  C    0.109340
     8  C    0.052449
     9  H   -0.041398
    10  C    0.310107
    11  H   -0.032483
    12  H   -0.053491
    13  H   -0.030301
    14  H    0.133162
    15  H    0.101891
    16  C    0.067761
    17  H   -0.031393
    18  H   -0.035001
    19  C    0.159339
    20  H   -0.057871
    21  H   -0.041590
    22  C    0.311974
    23  H   -0.033656
    24  H   -0.062727
    25  H   -0.031232
    26  H   -0.037424
    27  H   -0.033233
    28  H   -0.034074
 Sum of Mulliken charges =  -0.00000

 Dipole moment (field-independent basis, Debye):
    X=              1.2529    Y=             -1.0657    Z=             -0.1949  Tot=              1.6564
 Quadrupole moment (field-independent basis, Debye-Ang):
   XX=            -62.8696   YY=            -64.0251   ZZ=            -59.4564
   XY=              4.8021   XZ=              0.0614   YZ=             -0.4261

  Exact polarizability:      96.777       0.544      86.743       0.903      -1.163      80.227
 Approx polarizability:     116.246      -0.312     113.384       0.751      -0.740     117.810

 Summary of Natural Population Analysis:

                                       Natural Population
                Natural  -----------------------------------------------
    Atom  No    Charge         Core      Valence    Rydberg      Total
 -----------------------------------------------------------------------
      N    1   -0.53538      1.99946     5.52103    0.01490     7.53538
      N    2   -0.87201      1.99949     5.85864    0.01388     7.87201
      C    3   -0.00137      1.99898     3.98195    0.02044     6.00137
      H    4    0.17731      0.00000     0.81700    0.00569     0.82269
      C    5   -0.39363      1.99906     4.38084    0.01373     6.39363
      H    6    0.18368      0.00000     0.81234    0.00398     0.81632
      C    7   -0.35302      1.99911     4.34129    0.01262     6.35302
      C    8    0.01317      1.99898     3.96806    0.01979     5.98683
      H    9    0.18003      0.00000     0.81605    0.00392     0.81997
      C   10   -0.32179      1.99913     4.31115    0.01151     6.32179
      H   11    0.17439      0.00000     0.82331    0.00230     0.82561
      H   12    0.14750      0.00000     0.84725    0.00525     0.85250
      H   13    0.18100      0.00000     0.81671    0.00229     0.81900
      H   14    0.33795      0.00000     0.65799    0.00406     0.66205
      H   15    0.35812      0.00000     0.63620    0.00568     0.64188
      C   16   -0.36145      1.99910     4.34963    0.01271     6.36145
      H   17    0.18845      0.00000     0.80776    0.00378     0.81155
      H   18    0.17768      0.00000     0.81826    0.00406     0.82232
      C   19   -0.38639      1.99905     4.37151    0.01583     6.38639
      H   20    0.18037      0.00000     0.81511    0.00452     0.81963
      H   21    0.18807      0.00000     0.80741    0.00451     0.81193
      C   22   -0.31424      1.99912     4.30393    0.01119     6.31424
      H   23    0.17349      0.00000     0.82421    0.00229     0.82651
      H   24    0.14525      0.00000     0.84985    0.00490     0.85475
      H   25    0.17602      0.00000     0.82172    0.00226     0.82398
      H   26    0.17721      0.00000     0.81877    0.00402     0.82279
      H   27    0.18849      0.00000     0.80789    0.00363     0.81151
      H   28    0.19108      0.00000     0.80538    0.00354     0.80892
 =======================================================================
   * Total *    0.00000     19.99147    59.79126    0.21727    80.00000

 ******   19 imaginary frequencies (negative Signs) ******

                      1                      2                      3
                      A                      A                      A
 Frequencies --  -1392.3223             -1383.4307             -1097.6267
 Red. masses --      1.0117                 1.0112                 1.0566
 Frc consts  --      1.1556                 1.1402                 0.7500
 IR Inten    --      0.0344                 0.0305                 3.0792

                      4                      5                      6
                      A                      A                      A
 Frequencies --  -1066.2128             -1054.9238             -1034.3766
 Red. masses --      1.0416                 1.0317                 1.0282
 Frc consts  --      0.6976                 0.6764                 0.6482
 IR Inten    --      1.6402                 3.1781                 2.8274

                      7                      8                      9
                      A                      A                      A
 Frequencies --   -948.2070              -922.5968              -908.5812
 Red. masses --      1.1168                 1.0646                 1.0785
 Frc consts  --      0.5916                 0.5339                 0.5246
 IR Inten    --      8.5153                10.2294                 3.5980

                     10                     11                     12
                      A                      A                      A
 Frequencies --   -859.1722              -583.5794              -562.4844
 Red. masses --      1.0496                 1.1340                 1.2013
 Frc consts  --      0.4565                 0.2275                 0.2239
 IR Inten    --      0.2522                 0.6307                 0.8424

                     13                     14                     15
                      A                      A                      A
 Frequencies --   -553.1831              -528.0667              -463.9076
 Red. masses --      1.2338                 1.3752                 1.3980
 Frc consts  --      0.2225                 0.2259                 0.1773
 IR Inten    --      1.2447                 0.1178                 3.0192

                     16                     17                     18
                      A                      A                      A
 Frequencies --   -445.5882              -404.5197              -217.9577
 Red. masses --      1.1786                 1.6783                 1.3128
 Frc consts  --      0.1379                 0.1618                 0.0367
 IR Inten    --      2.9303                 0.6050                 5.3547

                     19                     20                     21
                      A                      A                      A
 Frequencies --   -198.6284               244.1997               283.7284
 Red. masses --      1.3793                 1.5855                 2.1192
 Frc consts  --      0.0321                 0.0557                 0.1005
 IR Inten    --      0.5961                52.0120                16.8655

                     22                     23                     24
                      A                      A                      A
 Frequencies --    354.1607               386.8544               454.5051
 Red. masses --      3.0159                 2.3697                 2.7407
 Frc consts  --      0.2229                 0.2089                 0.3336
 IR Inten    --      5.1451                22.8585                 0.6201

                     25                     26                     27
                      A                      A                      A
 Frequencies --    478.5425               524.2525               547.8260
 Red. masses --      1.4149                 2.2935                 1.4825
 Frc consts  --      0.1909                 0.3714                 0.2621
 IR Inten    --      0.1323                 2.5417                 0.5038

                     28                     29                     30
                      A                      A                      A
 Frequencies --    595.2590               617.2263               661.1722
 Red. masses --      1.1158                 1.5534                 2.3491
 Frc consts  --      0.2329                 0.3487                 0.6050
 IR Inten    --      2.1471                 1.7599                 0.3207

                     31                     32                     33
                      A                      A                      A
 Frequencies --    677.6218               694.3493               730.5844
 Red. masses --      2.1064                 1.8111                 3.6439
 Frc consts  --      0.5699                 0.5145                 1.1459
 IR Inten    --      3.9941                 1.0359                 8.3588

                     34                     35                     36
                      A                      A                      A
 Frequencies --    787.4442               808.1727               821.6167
 Red. masses --      3.6014                 1.6060                 2.7888
 Frc consts  --      1.3157                 0.6180                 1.1092
 IR Inten    --      6.1009                 0.1317                 1.8715

                     37                     38                     39
                      A                      A                      A
 Frequencies --    849.7663               875.4314               911.8871
 Red. masses --      1.8509                 3.6035                 2.6017
 Frc consts  --      0.7875                 1.6271                 1.2747
 IR Inten    --      7.9179                 3.1762                11.4924

                     40                     41                     42
                      A                      A                      A
 Frequencies --    935.2461               966.7648               974.8605
 Red. masses --      2.8343                 1.1737                 1.1674
 Frc consts  --      1.4607                 0.6463                 0.6537
 IR Inten    --     10.0052                 7.2332                 7.6717

                     43                     44                     45
                      A                      A                      A
 Frequencies --    987.4467               990.2151               997.8531
 Red. masses --      1.0565                 1.2050                 1.2365
 Frc consts  --      0.6069                 0.6961                 0.7254
 IR Inten    --      6.0278                 6.1119                 2.3394

                     46                     47                     48
                      A                      A                      A
 Frequencies --   1004.0660              1018.1891              1039.2021
 Red. masses --      1.1812                 1.5626                 1.5833
 Frc consts  --      0.7016                 0.9544                 1.0075
 IR Inten    --      0.8410                19.3791                52.0614

                     49                     50                     51
                      A                      A                      A
 Frequencies --   1057.1810              1094.0419              1103.9479
 Red. masses --      1.3011                 2.8127                 3.1868
 Frc consts  --      0.8567                 1.9835                 2.2882
 IR Inten    --     23.4001                 6.2014                19.6868

                     52                     53                     54
                      A                      A                      A
 Frequencies --   1129.5343              1142.5760              1187.1760
 Red. masses --      3.1467                 2.5833                 5.0700
 Frc consts  --      2.3654                 1.9870                 4.2100
 IR Inten    --      1.9903                23.5366                 3.2084

                     55                     56                     57
                      A                      A                      A
 Frequencies --   1196.7232              1211.2215              1224.7547
 Red. masses --      3.1120                 3.9578                 5.1823
 Frc consts  --      2.6259                 3.4210                 4.5800
 IR Inten    --     18.7436                21.7955                 0.7206

                     58                     59                     60
                      A                      A                      A
 Frequencies --   1234.7978              1331.4917              1464.8627
 Red. masses --      4.2552                 1.3848                 1.0586
 Frc consts  --      3.8226                 1.4465                 1.3384
 IR Inten    --     10.2619                16.9354                10.1605

                     61                     62                     63
                      A                      A                      A
 Frequencies --   1617.1391              3734.8498              4363.4084
 Red. masses --      1.1001                 1.0757                 1.0878
 Frc consts  --      1.6950                 8.8406                12.2028
 IR Inten    --     30.1366                 1.7758                 6.4659

                     64                     65                     66
                      A                      A                      A
 Frequencies --   4374.8794              4411.3888              4415.4061
 Red. masses --      1.0874                 1.0596                 1.0601
 Frc consts  --     12.2619                12.1489                12.1769
 IR Inten    --      9.0536                16.1961                16.0141

                     67                     68                     69
                      A                      A                      A
 Frequencies --   4418.1421              4421.7429              4461.2868
 Red. masses --      1.0596                 1.0608                 1.0309
 Frc consts  --     12.1862                12.2201                12.0889
 IR Inten    --     16.8887                15.2623                26.2564

                     70                     71                     72
                      A                      A                      A
 Frequencies --   4465.5112              4531.5283              4535.7642
 Red. masses --      1.0308                 1.1089                 1.1088
 Frc consts  --     12.1109                13.4168                13.4406
 IR Inten    --     31.7742                 8.1910                11.0493

                     73                     74                     75
                      A                      A                      A
 Frequencies --   4539.2497              4544.0747              4659.0387
 Red. masses --      1.1089                 1.1084                 1.1068
 Frc consts  --     13.4614                13.4842                14.1557
 IR Inten    --      4.4795                16.3833                25.8844

                     76                     77                     78
                      A                      A                      A
 Frequencies --   4664.5915              4676.2531              4684.7153
 Red. masses --      1.1074                 1.1075                 1.1078
 Frc consts  --     14.1965                14.2685                14.3242
 IR Inten    --      6.8580                 6.2848                 5.6283

 - Thermochemistry -
 -------------------
 Temperature   298.150 Kelvin.  Pressure   1.00000 Atm.
 Atom     1 has atomic number  7 and mass  14.00307

 Molecular mass:   142.14700 amu.
 Principal axes and moments of inertia in atomic units:
                           1         2         3
     Eigenvalues --   942.116141727.514972214.93948
           X            0.99981   0.01939  -0.00052
           Y           -0.01939   0.99978  -0.00817
           Z            0.00036   0.00818   0.99997
 This molecule is an asymmetric top.
 Rotational symmetry number  1.
 Warning -- assumption of classical behavior for rotation
           may cause significant error
 Rotational temperatures (Kelvin)      0.09194     0.05014     0.03910
 Rotational constants (GHZ):           1.91562     1.04470     0.81480
   19 imaginary frequencies ignored.
 Zero-point vibrational energy     676582.3 (Joules/Mol)
                                  161.70704 (Kcal/Mol)
 Warning -- explicit consideration of  10 degrees of freedom as
           vibrations may cause significant error
 Vibrational temperatures:    351.35   408.22   509.56   556.60   653.93
          (Kelvin)            688.52   754.28   788.20   856.44   888.05
                              951.28   974.95   999.01  1051.15  1132.96
                             1162.78  1182.12  1222.62  1259.55  1312.00
                             1345.61  1390.96  1402.61  1420.72  1424.70
                             1435.69  1444.63  1464.95  1495.18  1521.05
                             1574.08  1588.33  1625.15  1643.91  1708.08
                             1721.82  1742.68  1762.15  1776.60  1915.72
                             2107.61  2326.70  5373.62  6277.97  6294.48
                             6347.00  6352.78  6356.72  6361.90  6418.80
                             6424.87  6519.86  6525.95  6530.97  6537.91
                             6703.32  6711.31  6728.09  6740.26

 Zero-point correction=                           0.257697 (Hartree/Particle)
 Thermal correction to Energy=                    0.264797
 Thermal correction to Enthalpy=                  0.265741
 Thermal correction to Gibbs Free Energy=         0.226223
 Sum of electronic and zero-point Energies=           -423.860815
 Sum of electronic and thermal Energies=              -423.853714
 Sum of electronic and thermal Enthalpies=            -423.852770
 Sum of electronic and thermal Free Energies=         -423.892288

                     E (Thermal)             CV                S
                      KCal/Mol        Cal/Mol-Kelvin    Cal/Mol-Kelvin
 Total                  166.163             32.574             83.172
 Electronic               0.000              0.000              0.000
 Translational            0.889              2.981             40.766
 Rotational               0.889              2.981             29.668
 Vibrational            164.385             26.613             12.738
 Vibration     1          0.660              1.772              1.772
 Vibration     2          0.682              1.704              1.511
 Vibration     3          0.730              1.567              1.148
 Vibration     4          0.755              1.498              1.012
 Vibration     5          0.813              1.351              0.782
 Vibration     6          0.835              1.298              0.714
 Vibration     7          0.879              1.196              0.600
 Vibration     8          0.903              1.144              0.549
 Vibration     9          0.953              1.042              0.458
 Vibration    10          0.977              0.995              0.421

 Normal termination of Gaussian 16 at Sat Mar  4 11:54:44 2023.
