 Gaussian 16, Revision C.01,
 Gaussian 16:  ES64L-G16RevC.01  3-Jul-2019

 ----------------------------------------------------------------------
 #p pop=(regular,nbo,savenbos) freq=noraman def2svp empiricaldispersion
 =gd3bj output=wfx pbe1pbe
 ----------------------------------------------------------------------

 ----------------------------------------
 QISZIC_Complex_2_Ligand_0_NN_Cu_oriented
 ----------------------------------------
 Symbolic Z-matrix:
 Charge =  0 Multiplicity = 1

                         Standard orientation:
 ---------------------------------------------------------------------
 Center     Atomic      Atomic             Coordinates (Angstroms)
 Number     Number       Type             X           Y           Z
 ---------------------------------------------------------------------
      1          7           0        1.252633   -0.683101    0.275785
      2          6           0       -0.732422    0.488605   -0.134429
      3          8           0       -3.936348    1.541918   -0.422971
      4          7           0       -1.643408    1.502117   -0.171941
      5          7           0        1.641326    1.512734    0.071311
      6          7           0       -1.230853   -0.694884   -0.324385
      7          6           0        0.741827    0.483700    0.076534
      8          8           0        3.907241    1.598919    0.397798
      9          6           0       -2.905702    0.948340   -0.368863
     10          6           0       -3.062374   -0.980145   -1.924025
     11          1           0       -4.009256   -0.891006   -2.045499
     12          1           0       -2.604570   -0.415745   -2.551718
     13          1           0       -2.804900   -1.894570   -2.069882
     14          6           0       -2.687890   -0.562592   -0.501227
     15          6           0        3.053722   -0.883903    1.935621
     16          1           0        3.999023   -0.781130    2.063896
     17          1           0        2.583186   -0.300902    2.539032
     18          1           0        2.803805   -1.793235    2.111852
     19          6           0       -3.499351   -1.272557    0.594130
     20          1           0       -4.388193   -0.923777    0.490040
     21          6           0       -1.573277    2.918964    0.170293
     22          1           0       -1.333245    3.016467    1.094688
     23          6           0        2.898488    0.973907    0.316788
     24          6           0       -3.522729   -2.791680    0.469488
     25          1           0       -4.048114   -3.155891    1.184298
     26          1           0       -3.910813   -3.039681   -0.373004
     27          1           0       -2.628679   -3.137044    0.522635
     28          6           0        2.700804   -0.532837    0.499497
     29          6           0        3.543052   -1.295838   -0.559224
     30          1           0        4.449915   -1.006091   -0.426180
     31          6           0        1.456170    2.945466   -0.126969
     32          1           0        0.865868    3.283400    0.548771
     33          6           0        3.449470   -2.802212   -0.387222
     34          1           0        3.978294   -3.236502   -1.060568
     35          1           0        3.781977   -3.037454    0.482170
     36          1           0        2.535420   -3.084530   -0.466832
     37          6           0        3.196932   -0.895022   -1.963998
     38          1           0        3.745056   -1.384756   -2.583129
     39          1           0        2.273322   -1.091614   -2.127107
     40          1           0        3.349859    0.046549   -2.079396
     41          6           0       -3.022985   -0.851200    1.996362
     42          1           0       -3.545197   -1.292516    2.668641
     43          1           0       -2.096903   -1.076614    2.111954
     44          1           0       -3.132268    0.099560    2.078925
     45          1           0       -0.915894    3.351897   -0.378827
     46          1           0       -2.430189    3.320503    0.017986
     47          1           0        2.302635    3.398406   -0.069129
     48          1           0        1.072426    3.095546   -0.994155
 ---------------------------------------------------------------------

 SCF Done:  E(RPBE1PBE) =  -992.609154856     A.U. after   15 cycles

 The electronic state is 1-A.
 Alpha  occ. eigenvalues --  -19.19870 -19.19496 -14.45418 -14.45191 -14.37279
 Alpha  occ. eigenvalues --  -14.37172 -10.33582 -10.33415 -10.32391 -10.32308
 Alpha  occ. eigenvalues --  -10.26858 -10.26757 -10.25673 -10.25513 -10.22141
 Alpha  occ. eigenvalues --  -10.21864 -10.19297 -10.19234 -10.17713 -10.17538
 Alpha  occ. eigenvalues --  -10.17362 -10.17343  -1.09387  -1.09041  -1.03623
 Alpha  occ. eigenvalues --   -1.01891  -0.92994  -0.91357  -0.85032  -0.83495
 Alpha  occ. eigenvalues --   -0.79807  -0.78999  -0.78388  -0.76798  -0.74352
 Alpha  occ. eigenvalues --   -0.73258  -0.72711  -0.68821  -0.66604  -0.64184
 Alpha  occ. eigenvalues --   -0.61331  -0.59454  -0.58977  -0.57308  -0.55285
 Alpha  occ. eigenvalues --   -0.53822  -0.52551  -0.51104  -0.50924  -0.49573
 Alpha  occ. eigenvalues --   -0.49544  -0.48323  -0.47973  -0.47278  -0.46725
 Alpha  occ. eigenvalues --   -0.46361  -0.46153  -0.44881  -0.44395  -0.44296
 Alpha  occ. eigenvalues --   -0.43643  -0.42690  -0.42225  -0.41938  -0.41687
 Alpha  occ. eigenvalues --   -0.41571  -0.41171  -0.39923  -0.39616  -0.39389
 Alpha  occ. eigenvalues --   -0.36155  -0.35973  -0.35696  -0.35397  -0.34726
 Alpha  occ. eigenvalues --   -0.34391  -0.33929  -0.32205  -0.30312  -0.27027
 Alpha  occ. eigenvalues --   -0.26241  -0.24780  -0.24251
 Alpha virt. eigenvalues --   -0.05377   0.01246   0.03488   0.06326   0.08701
 Alpha virt. eigenvalues --    0.08895   0.10222   0.11003   0.11557   0.12129
 Alpha virt. eigenvalues --    0.12283   0.12513   0.13637   0.14670   0.14734

 Mulliken charges:
               1
     1  N   -0.158047
     2  C    0.122877
     3  O   -0.213411
     4  N   -0.396089
     5  N   -0.402114
     6  N   -0.168607
     7  C    0.119190
     8  O   -0.214072
     9  C    0.237988
    10  C    0.340020
    11  H   -0.014885
    12  H   -0.035430
    13  H   -0.008857
    14  C   -0.356543
    15  C    0.347918
    16  H   -0.013749
    17  H   -0.035875
    18  H   -0.011516
    19  C   -0.112003
    20  H   -0.020439
    21  C    0.344628
    22  H    0.001181
    23  C    0.235853
    24  C    0.237694
    25  H   -0.027756
    26  H   -0.035164
    27  H   -0.011230
    28  C   -0.361949
    29  C   -0.116205
    30  H   -0.022452
    31  C    0.340890
    32  H   -0.017899
    33  C    0.242886
    34  H   -0.028954
    35  H   -0.039151
    36  H   -0.012239
    37  C    0.220771
    38  H   -0.027408
    39  H   -0.014863
    40  H   -0.031327
    41  C    0.209062
    42  H   -0.027412
    43  H   -0.007400
    44  H   -0.035192
    45  H   -0.026715
    46  H   -0.001069
    47  H    0.001856
    48  H    0.003209
 Sum of Mulliken charges =  -0.00000

 Dipole moment (field-independent basis, Debye):
    X=             -0.0968    Y=              1.7793    Z=              0.1771  Tot=              1.7907
 Quadrupole moment (field-independent basis, Debye-Ang):
   XX=           -148.8354   YY=           -122.0697   ZZ=           -126.1057
   XY=             -0.5002   XZ=             -2.7115   YZ=              0.1890

  Exact polarizability:     204.898       0.119     185.483       7.017       0.371     140.224
 Approx polarizability:     266.984       0.212     270.427      12.451       0.414     196.400

 Summary of Natural Population Analysis:

                                       Natural Population
                Natural  -----------------------------------------------
    Atom  No    Charge         Core      Valence    Rydberg      Total
 -----------------------------------------------------------------------
      N    1   -0.48194      1.99935     5.46441    0.01817     7.48194
      C    2    0.41108      1.99902     3.55601    0.03389     5.58892
      O    3   -0.60699      1.99969     6.59585    0.01145     8.60699
      N    4   -0.52290      1.99895     5.51297    0.01098     7.52290
      N    5   -0.51969      1.99895     5.50968    0.01106     7.51969
      N    6   -0.47634      1.99937     5.45903    0.01793     7.47634
      C    7    0.41586      1.99901     3.55090    0.03423     5.58414
      O    8   -0.60821      1.99969     6.59702    0.01149     8.60821
      C    9    0.74563      1.99913     3.19648    0.05876     5.25437
      C   10   -0.52758      1.99911     4.51529    0.01318     6.52758
      H   11    0.19681      0.00000     0.80005    0.00314     0.80319
      H   12    0.19514      0.00000     0.80243    0.00243     0.80486
      H   13    0.20142      0.00000     0.79577    0.00281     0.79858
      C   14    0.05706      1.99892     3.91844    0.02558     5.94294
      C   15   -0.53083      1.99911     4.51855    0.01317     6.53083
      H   16    0.19902      0.00000     0.79781    0.00316     0.80098
      H   17    0.19566      0.00000     0.80191    0.00243     0.80434
      H   18    0.20124      0.00000     0.79590    0.00285     0.79876
      C   19   -0.16790      1.99892     4.15222    0.01675     6.16790
      H   20    0.18429      0.00000     0.80836    0.00734     0.81571
      C   21   -0.30080      1.99909     4.28969    0.01202     6.30080
      H   22    0.17978      0.00000     0.81793    0.00228     0.82022
      C   23    0.74267      1.99912     3.19894    0.05927     5.25733
      C   24   -0.54365      1.99917     4.53377    0.01071     6.54365
      H   25    0.18955      0.00000     0.80800    0.00246     0.81045
      H   26    0.18455      0.00000     0.81303    0.00242     0.81545
      H   27    0.19373      0.00000     0.80276    0.00351     0.80627
      C   28    0.05978      1.99893     3.91561    0.02568     5.94022
      C   29   -0.16409      1.99896     4.14762    0.01751     6.16409
      H   30    0.18490      0.00000     0.80916    0.00594     0.81510
      C   31   -0.30380      1.99910     4.29230    0.01240     6.30380
      H   32    0.17791      0.00000     0.81967    0.00241     0.82209
      C   33   -0.54563      1.99917     4.53552    0.01095     6.54563
      H   34    0.18908      0.00000     0.80845    0.00246     0.81092
      H   35    0.18426      0.00000     0.81330    0.00243     0.81574
      H   36    0.19553      0.00000     0.80088    0.00359     0.80447
      C   37   -0.54912      1.99917     4.53948    0.01047     6.54912
      H   38    0.19214      0.00000     0.80539    0.00247     0.80786
      H   39    0.19044      0.00000     0.80587    0.00370     0.80956
      H   40    0.18497      0.00000     0.81252    0.00251     0.81503
      C   41   -0.54518      1.99916     4.53540    0.01062     6.54518
      H   42    0.19059      0.00000     0.80704    0.00237     0.80941
      H   43    0.19229      0.00000     0.80406    0.00366     0.80771
      H   44    0.18199      0.00000     0.81551    0.00250     0.81801
      H   45    0.17862      0.00000     0.81898    0.00241     0.82138
      H   46    0.20810      0.00000     0.78663    0.00527     0.79190
      H   47    0.20959      0.00000     0.78541    0.00501     0.79041
      H   48    0.18094      0.00000     0.81681    0.00225     0.81906
 =======================================================================
   * Total *    0.00000     43.98109   121.48878    0.53013   166.00000

 ******   28 imaginary frequencies (negative Signs) ******

                      1                      2                      3
                      A                      A                      A
 Frequencies --  -1394.6173             -1391.3274             -1387.4754
 Red. masses --      1.0085                 1.0085                 1.0081
 Frc consts  --      1.1557                 1.1502                 1.1435
 IR Inten    --      0.7205                 0.0214                 0.0286

                      4                      5                      6
                      A                      A                      A
 Frequencies --  -1386.9349             -1383.7173             -1383.0236
 Red. masses --      1.0082                 1.0080                 1.0098
 Frc consts  --      1.1426                 1.1372                 1.1380
 IR Inten    --      0.1019                 0.0633                 0.0552

                      7                      8                      9
                      A                      A                      A
 Frequencies --  -1379.0314             -1376.0670             -1042.4998
 Red. masses --      1.0091                 1.0099                 1.0757
 Frc consts  --      1.1307                 1.1267                 0.6888
 IR Inten    --      0.3903                 0.0675                17.1103

                     10                     11                     12
                      A                      A                      A
 Frequencies --  -1032.8361             -1020.6033             -1013.2176
 Red. masses --      1.0766                 1.0247                 1.0373
 Frc consts  --      0.6767                 0.6289                 0.6274
 IR Inten    --     16.1924                 2.2142                 8.5150

                     13                     14                     15
                      A                      A                      A
 Frequencies --  -1012.3481             -1006.7590              -992.8040
 Red. masses --      1.0363                 1.0298                 1.0354
 Frc consts  --      0.6257                 0.6150                 0.6013
 IR Inten    --      3.2002                 3.7116                 1.1331

                     16                     17                     18
                      A                      A                      A
 Frequencies --   -985.8152              -979.5588              -974.3766
 Red. masses --      1.0549                 1.0601                 1.0369
 Frc consts  --      0.6040                 0.5993                 0.5800
 IR Inten    --     11.6391                 9.3386                 6.5455

                     19                     20                     21
                      A                      A                      A
 Frequencies --   -955.5808              -948.7137              -895.6808
 Red. masses --      1.0271                 1.0312                 1.0560
 Frc consts  --      0.5526                 0.5469                 0.4991
 IR Inten    --      1.8430                 1.1328                39.6402

                     22                     23                     24
                      A                      A                      A
 Frequencies --   -879.2782              -874.1238              -867.4366
 Red. masses --      1.0875                 1.0754                 1.1200
 Frc consts  --      0.4954                 0.4841                 0.4965
 IR Inten    --      1.1402                 2.1078                 2.5400

                     25                     26                     27
                      A                      A                      A
 Frequencies --   -536.0670              -526.4092              -466.2508
 Red. masses --      1.4420                 1.4729                 1.4645
 Frc consts  --      0.2441                 0.2405                 0.1876
 IR Inten    --      0.1039                 0.1509                 0.1350

                     28                     29                     30
                      A                      A                      A
 Frequencies --   -454.9270                40.6811                60.1194
 Red. masses --      1.4694                10.7155                 7.9737
 Frc consts  --      0.1792                 0.0104                 0.0170
 IR Inten    --      0.9744                 7.2834                 1.8716

                     31                     32                     33
                      A                      A                      A
 Frequencies --    102.0794               147.9488               156.3113
 Red. masses --      7.1774                 6.2815                 6.0589
 Frc consts  --      0.0441                 0.0810                 0.0872
 IR Inten    --      0.3126                 1.1972                 1.1423

                     34                     35                     36
                      A                      A                      A
 Frequencies --    167.4443               238.7830               258.1107
 Red. masses --      5.6900                 6.9934                 6.2980
 Frc consts  --      0.0940                 0.2349                 0.2472
 IR Inten    --      0.0448                 4.3854                 0.4103

                     37                     38                     39
                      A                      A                      A
 Frequencies --    288.4644               297.1434               355.9674
 Red. masses --      6.2703                 5.2253                 1.2461
 Frc consts  --      0.3074                 0.2718                 0.0930
 IR Inten    --      1.1703                 4.7695                 9.8629

                     40                     41                     42
                      A                      A                      A
 Frequencies --    371.2882               374.4963               406.4201
 Red. masses --      3.9928                 3.5306                 1.2184
 Frc consts  --      0.3243                 0.2917                 0.1186
 IR Inten    --     12.4275                 3.0702                15.3029

                     43                     44                     45
                      A                      A                      A
 Frequencies --    415.9119               428.1124               432.0686
 Red. masses --      1.4436                 1.4999                 3.4505
 Frc consts  --      0.1471                 0.1620                 0.3795
 IR Inten    --     20.6510                 4.6251                 2.6369

                     46                     47                     48
                      A                      A                      A
 Frequencies --    437.2783               448.4084               450.4356
 Red. masses --      3.3850                 1.5567                 3.5316
 Frc consts  --      0.3814                 0.1844                 0.4222
 IR Inten    --      3.7847                10.2687                 6.0837

                     49                     50                     51
                      A                      A                      A
 Frequencies --    468.0132               470.9062               477.5412
 Red. masses --      1.7474                 2.2908                 4.2196
 Frc consts  --      0.2255                 0.2993                 0.5669
 IR Inten    --      7.1273                10.3551                14.4117

                     52                     53                     54
                      A                      A                      A
 Frequencies --    508.2097               509.0343               526.7945
 Red. masses --      5.0907                 5.1909                 5.1776
 Frc consts  --      0.7747                 0.7925                 0.8466
 IR Inten    --      2.3125                 2.9136                 0.8803

                     55                     56                     57
                      A                      A                      A
 Frequencies --    544.8708               562.1097               564.8685
 Red. masses --      5.0899                 5.5240                 5.2743
 Frc consts  --      0.8903                 1.0284                 0.9915
 IR Inten    --      3.8328                 2.3928                 1.8976

                     58                     59                     60
                      A                      A                      A
 Frequencies --    583.1322               611.6890               636.0077
 Red. masses --      4.8742                 1.7222                 1.9689
 Frc consts  --      0.9765                 0.3797                 0.4692
 IR Inten    --      1.6241                 4.8613                 1.0946

                     61                     62                     63
                      A                      A                      A
 Frequencies --    671.0907               671.6947               679.4606
 Red. masses --      3.0715                 3.9018                 2.6767
 Frc consts  --      0.8150                 1.0372                 0.7281
 IR Inten    --      8.6615                12.7393                 1.4587

                     64                     65                     66
                      A                      A                      A
 Frequencies --    692.2022               698.1966               705.1210
 Red. masses --      4.6155                 2.3657                 2.3042
 Frc consts  --      1.3030                 0.6795                 0.6750
 IR Inten    --      9.5638                 0.2473                 2.5232

                     67                     68                     69
                      A                      A                      A
 Frequencies --    741.1014               746.7462               771.2976
 Red. masses --      5.0898                 7.0019                 5.5299
 Frc consts  --      1.6471                 2.3004                 1.9383
 IR Inten    --     22.0486                 2.1015                15.3376

                     70                     71                     72
                      A                      A                      A
 Frequencies --    776.7865               798.2928               804.5939
 Red. masses --      7.1035                 4.6645                 9.1244
 Frc consts  --      2.5254                 1.7514                 3.4802
 IR Inten    --     19.0578                12.2261                 0.1591

                     73                     74                     75
                      A                      A                      A
 Frequencies --    848.0408               849.0185               858.3358
 Red. masses --      3.1093                 4.0833                 2.5889
 Frc consts  --      1.3175                 1.7342                 1.1238
 IR Inten    --      7.5842                60.0305                64.3262

                     76                     77                     78
                      A                      A                      A
 Frequencies --    908.1678               950.1072               963.1750
 Red. masses --      2.5404                 1.4956                 1.2234
 Frc consts  --      1.2345                 0.7955                 0.6687
 IR Inten    --     10.3091                12.4687                 5.4366

                     79                     80                     81
                      A                      A                      A
 Frequencies --    970.8739               973.7104               975.1926
 Red. masses --      1.2882                 1.1692                 1.2876
 Frc consts  --      0.7154                 0.6531                 0.7215
 IR Inten    --     21.4817                16.5343                30.6026

                     82                     83                     84
                      A                      A                      A
 Frequencies --    975.5451               983.7665               989.4882
 Red. masses --      1.1636                 1.0963                 1.0682
 Frc consts  --      0.6524                 0.6251                 0.6162
 IR Inten    --      5.5020                 5.3573                 4.4932

                     85                     86                     87
                      A                      A                      A
 Frequencies --    996.4641              1002.8909              1027.8390
 Red. masses --      1.0382                 1.0316                 1.3383
 Frc consts  --      0.6074                 0.6113                 0.8330
 IR Inten    --      2.3662                 1.5947                 2.5621

                     88                     89                     90
                      A                      A                      A
 Frequencies --   1040.8591              1049.3139              1066.1998
 Red. masses --      1.2102                 2.0447                 1.0740
 Frc consts  --      0.7725                 1.3265                 0.7194
 IR Inten    --      2.7588                 6.0381                38.7842

                     91                     92                     93
                      A                      A                      A
 Frequencies --   1071.3612              1083.5782              1095.1474
 Red. masses --      1.2268                 1.5717                 1.6999
 Frc consts  --      0.8296                 1.0873                 1.2012
 IR Inten    --     11.4751                 2.3406                 2.6980

                     94                     95                     96
                      A                      A                      A
 Frequencies --   1117.7087              1143.2135              1165.3842
 Red. masses --      2.1782                 2.5105                 4.2166
 Frc consts  --      1.6033                 1.9331                 3.3741
 IR Inten    --      4.5542                 3.5560                 2.2860

                     97                     98                     99
                      A                      A                      A
 Frequencies --   1182.9197              1190.9259              1194.4751
 Red. masses --      4.0774                 4.7799                 3.9834
 Frc consts  --      3.3616                 3.9943                 3.3486
 IR Inten    --      0.0392                15.0204                 3.7700

                    100                    101                    102
                      A                      A                      A
 Frequencies --   1206.7092              1233.3806              1242.5317
 Red. masses --      6.2091                 5.8779                 4.5066
 Frc consts  --      5.3270                 5.2682                 4.0993
 IR Inten    --      6.5564                 5.6522                 3.3229

                    103                    104                    105
                      A                      A                      A
 Frequencies --   1268.0700              1280.5637              1339.7989
 Red. masses --      5.0997                 6.1259                 7.7329
 Frc consts  --      4.8315                 5.9187                 8.1784
 IR Inten    --     15.8074                15.6052               420.1585

                    106                    107                    108
                      A                      A                      A
 Frequencies --   1379.7837              1480.6326              1600.0791
 Red. masses --      8.3932                10.1762                11.4583
 Frc consts  --      9.4146                13.1441                17.2844
 IR Inten    --     20.7931                72.8799               120.8607

                    109                    110                    111
                      A                      A                      A
 Frequencies --   1611.3426              1669.8629              1977.1197
 Red. masses --     11.9559                12.1649                12.9544
 Frc consts  --     18.2898                19.9857                29.8356
 IR Inten    --    296.4587                18.0235               413.3784

                    112                    113                    114
                      A                      A                      A
 Frequencies --   1987.8835              4463.8225              4468.0116
 Red. masses --     12.9661                 1.0329                 1.0328
 Frc consts  --     30.1886                12.1259                12.1479
 IR Inten    --    250.8696                 7.1310                 3.1228

                    115                    116                    117
                      A                      A                      A
 Frequencies --   4469.5416              4470.4133              4471.3818
 Red. masses --      1.0325                 1.0323                 1.0321
 Frc consts  --     12.1520                12.1548                12.1578
 IR Inten    --     10.4384                 6.4237                12.9179

                    118                    119                    120
                      A                      A                      A
 Frequencies --   4471.7039              4474.1508              4483.4339
 Red. masses --      1.0324                 1.0324                 1.0323
 Frc consts  --     12.1633                12.1759                12.2253
 IR Inten    --      3.2186                 9.0291                16.5075

                    121                    122                    123
                      A                      A                      A
 Frequencies --   4593.7327              4606.7864              4658.5786
 Red. masses --      1.0871                 1.0871                 1.1066
 Frc consts  --     13.5161                13.5934                14.1502
 IR Inten    --      4.7835                 3.0435                 5.1929

                    124                    125                    126
                      A                      A                      A
 Frequencies --   4666.0997              4670.9707              4671.0941
 Red. masses --      1.1063                 1.1077                 1.1065
 Frc consts  --     14.1921                14.2395                14.2240
 IR Inten    --      2.4372                 1.5228                 3.0638

                    127                    128                    129
                      A                      A                      A
 Frequencies --   4671.4198              4673.6865              4677.7618
 Red. masses --      1.1069                 1.1067                 1.1065
 Frc consts  --     14.2318                14.2426                14.2658
 IR Inten    --      2.4279                 4.2638                 3.0285

                    130                    131                    132
                      A                      A                      A
 Frequencies --   4679.5324              4683.0837              4685.9461
 Red. masses --      1.1068                 1.1071                 1.1072
 Frc consts  --     14.2804                14.3061                14.3245
 IR Inten    --      1.7157                 1.3444                 0.2618

                    133                    134                    135
                      A                      A                      A
 Frequencies --   4686.8124              4686.8227              4690.1910
 Red. masses --      1.1068                 1.1064                 1.1067
 Frc consts  --     14.3244                14.3187                14.3442
 IR Inten    --      5.3697                 1.3339                 0.1470

                    136                    137                    138
                      A                      A                      A
 Frequencies --   4690.5391              4691.2265              4701.8222
 Red. masses --      1.1067                 1.1073                 1.1069
 Frc consts  --     14.3457                14.3574                14.4171
 IR Inten    --      1.0857                 1.8804                 3.1292

 - Thermochemistry -
 -------------------
 Temperature   298.150 Kelvin.  Pressure   1.00000 Atm.
 Atom     1 has atomic number  7 and mass  14.00307

 Molecular mass:   306.20558 amu.
 Principal axes and moments of inertia in atomic units:
                           1         2         3
     Eigenvalues --  3873.566669406.98379**********
           X            0.99997  -0.00051  -0.00706
           Y            0.00052   1.00000   0.00120
           Z            0.00706  -0.00121   0.99997
 This molecule is an asymmetric top.
 Rotational symmetry number  1.
 Warning -- assumption of classical behavior for rotation
           may cause significant error
 Rotational temperatures (Kelvin)      0.02236     0.00921     0.00769
 Rotational constants (GHZ):           0.46591     0.19185     0.16023
   28 imaginary frequencies ignored.
 Zero-point vibrational energy    1123935.0 (Joules/Mol)
                                  268.62692 (Kcal/Mol)
 Warning -- explicit consideration of  31 degrees of freedom as
           vibrations may cause significant error
 Vibrational temperatures:     58.53    86.50   146.87   212.87   224.90
          (Kelvin)            240.92   343.56   371.36   415.04   427.52
                              512.16   534.20   538.82   584.75   598.40
                              615.96   621.65   629.15   645.16   648.08
                              673.37   677.53   687.08   731.20   732.39
                              757.94   783.95   808.75   812.72   839.00
                              880.08   915.07   965.55   966.42   977.59
                              995.92  1004.55  1014.51  1066.28  1074.40
                             1109.73  1117.62  1148.57  1157.63  1220.14
                             1221.55  1234.95  1306.65  1366.99  1385.79
                             1396.87  1400.95  1403.08  1403.59  1415.42
                             1423.65  1433.69  1442.94  1478.83  1497.56
                             1509.73  1534.02  1541.45  1559.03  1575.67
                             1608.13  1644.83  1676.73  1701.96  1713.48
                             1718.58  1736.19  1774.56  1787.73  1824.47
                             1842.45  1927.67  1985.20  2130.30  2302.16
                             2318.36  2402.56  2844.63  2860.12  6422.44
                             6428.47  6430.67  6431.93  6433.32  6433.78
                             6437.31  6450.66  6609.36  6628.14  6702.66
                             6713.48  6720.48  6720.66  6721.13  6724.39
                             6730.26  6732.80  6737.91  6742.03  6743.28
                             6743.29  6748.14  6748.64  6749.63  6764.87

 Zero-point correction=                           0.428084 (Hartree/Particle)
 Thermal correction to Energy=                    0.444735
 Thermal correction to Enthalpy=                  0.445679
 Thermal correction to Gibbs Free Energy=         0.385365
 Sum of electronic and zero-point Energies=           -992.181071
 Sum of electronic and thermal Energies=              -992.164420
 Sum of electronic and thermal Enthalpies=            -992.163476
 Sum of electronic and thermal Free Energies=         -992.223790

                     E (Thermal)             CV                S
                      KCal/Mol        Cal/Mol-Kelvin    Cal/Mol-Kelvin
 Total                  279.075             73.363            126.941
 Electronic               0.000              0.000              0.000
 Translational            0.889              2.981             43.054
 Rotational               0.889              2.981             34.372
 Vibrational            277.298             67.402             49.515
 Vibration     1          0.594              1.981              5.226
 Vibration     2          0.597              1.973              4.453
 Vibration     3          0.604              1.948              3.414
 Vibration     4          0.617              1.905              2.698
 Vibration     5          0.620              1.896              2.594
 Vibration     6          0.624              1.883              2.464
 Vibration     7          0.657              1.781              1.812
 Vibration     8          0.667              1.749              1.675
 Vibration     9          0.685              1.695              1.483
 Vibration    10          0.691              1.679              1.433
 Vibration    11          0.731              1.563              1.140
 Vibration    12          0.743              1.531              1.074
 Vibration    13          0.746              1.524              1.061
 Vibration    14          0.771              1.456              0.939
 Vibration    15          0.779              1.436              0.906
 Vibration    16          0.790              1.409              0.865
 Vibration    17          0.793              1.400              0.852
 Vibration    18          0.798              1.389              0.835
 Vibration    19          0.807              1.364              0.801
 Vibration    20          0.809              1.360              0.794
 Vibration    21          0.825              1.321              0.743
 Vibration    22          0.828              1.315              0.735
 Vibration    23          0.834              1.300              0.717
 Vibration    24          0.863              1.232              0.638
 Vibration    25          0.864              1.230              0.636
 Vibration    26          0.882              1.191              0.594
 Vibration    27          0.900              1.151              0.555
 Vibration    28          0.918              1.113              0.520
 Vibration    29          0.921              1.107              0.514
 Vibration    30          0.940              1.068              0.480
 Vibration    31          0.971              1.007              0.430

 Normal termination of Gaussian 16 at Sat Mar  4 13:45:43 2023.
