 Gaussian 16, Revision C.01,
 Gaussian 16:  ES64L-G16RevC.01  3-Jul-2019

 ----------------------------------------------------------------------
 #p pop=(regular,nbo,savenbos) freq=noraman def2svp empiricaldispersion
 =gd3bj output=wfx pbe1pbe
 ----------------------------------------------------------------------

 ----------------------------------------
 QIVWID_Complex_0_Ligand_1_NN_Cu_oriented
 ----------------------------------------
 Symbolic Z-matrix:
 Charge =  0 Multiplicity = 1

                         Standard orientation:
 ---------------------------------------------------------------------
 Center     Atomic      Atomic             Coordinates (Angstroms)
 Number     Number       Type             X           Y           Z
 ---------------------------------------------------------------------
      1          7           0        1.240780    2.846940    0.221765
      2          1           0        1.714246    2.828988   -0.567164
      3          1           0        1.828894    3.012626    0.909669
      4          7           0       -1.414635    2.773594   -0.271144
      5          1           0       -1.999672    2.652534    0.428306
      6          1           0       -1.904759    2.981357   -1.021402
      7          6           0        0.561311    1.549021    0.435946
      8          1           0        0.215450    1.542237    1.374028
      9          6           0       -0.656677    1.511100   -0.508247
     10          1           0       -0.327594    1.507092   -1.452815
     11          6           0        1.466196    0.340733    0.275013
     12          6           0        2.158238    0.115030   -0.936035
     13          1           0        2.075157    0.719637   -1.663024
     14          6           0        2.964154   -1.010896   -1.038534
     15          1           0        3.399833   -1.188944   -1.862972
     16          6           0        3.148774   -1.869168    0.013495
     17          1           0        3.733231   -2.614138   -0.067932
     18          6           0        2.473204   -1.635314    1.189808
     19          1           0        2.576398   -2.231833    1.921865
     20          6           0        1.643835   -0.531560    1.307852
     21          1           0        1.188684   -0.378961    2.127731
     22          6           0       -1.504334    0.255948   -0.280567
     23          6           0       -1.359233   -0.821887   -1.156719
     24          1           0       -0.742635   -0.772554   -1.878299
     25          6           0       -2.123695   -1.970329   -0.964546
     26          1           0       -2.014169   -2.711369   -1.548860
     27          6           0       -3.026461   -2.043131    0.052574
     28          1           0       -3.566734   -2.818000    0.156718
     29          6           0       -3.151080   -0.996989    0.922537
     30          1           0       -3.767316   -1.055998    1.642855
     31          6           0       -2.381594    0.158697    0.764970
     32          1           0       -2.467856    0.876065    1.381662
 ---------------------------------------------------------------------

 SCF Done:  E(RPBE1PBE) =  -651.175639483     A.U. after   14 cycles

 The electronic state is 1-A.
 Alpha  occ. eigenvalues --  -14.33670 -14.33635 -10.24995 -10.24619 -10.23275
 Alpha  occ. eigenvalues --  -10.23232 -10.22085 -10.21790 -10.21789 -10.21743
 Alpha  occ. eigenvalues --  -10.21699 -10.21624 -10.21514 -10.21399 -10.21248
 Alpha  occ. eigenvalues --  -10.21141  -0.93127  -0.89776  -0.87839  -0.87429
 Alpha  occ. eigenvalues --   -0.79418  -0.77712  -0.77364  -0.77124  -0.72145
 Alpha  occ. eigenvalues --   -0.66121  -0.64296  -0.63944  -0.61813  -0.59995
 Alpha  occ. eigenvalues --   -0.56229  -0.56011  -0.51826  -0.51723  -0.50332
 Alpha  occ. eigenvalues --   -0.48709  -0.47446  -0.47004  -0.46014  -0.44949
 Alpha  occ. eigenvalues --   -0.44825  -0.43252  -0.42411  -0.42090  -0.39173
 Alpha  occ. eigenvalues --   -0.38135  -0.37797  -0.36524  -0.36247  -0.35473
 Alpha  occ. eigenvalues --   -0.35122  -0.27068  -0.26594  -0.26140  -0.26049
 Alpha  occ. eigenvalues --   -0.24659  -0.21844
 Alpha virt. eigenvalues --   -0.00755  -0.00418   0.00477   0.00850   0.08305
 Alpha virt. eigenvalues --    0.09438   0.10137   0.10716   0.11610   0.13441
 Alpha virt. eigenvalues --    0.13877   0.14328   0.15634   0.15666   0.16152

 Mulliken charges:
               1
     1  N   -0.096761
     2  H    0.046868
     3  H    0.059626
     4  N   -0.087014
     5  H    0.041607
     6  H    0.060128
     7  C    0.158084
     8  H   -0.054248
     9  C    0.079114
    10  H   -0.040922
    11  C   -0.033715
    12  C    0.058061
    13  H   -0.095317
    14  C    0.081171
    15  H   -0.078705
    16  C    0.082234
    17  H   -0.077774
    18  C    0.085066
    19  H   -0.078454
    20  C    0.067184
    21  H   -0.098350
    22  C   -0.030730
    23  C    0.084552
    24  H   -0.097952
    25  C    0.085045
    26  H   -0.079176
    27  C    0.083439
    28  H   -0.078605
    29  C    0.086908
    30  H   -0.079961
    31  C    0.043440
    32  H   -0.094845
 Sum of Mulliken charges =  -0.00000

 Dipole moment (field-independent basis, Debye):
    X=              0.0696    Y=             -1.3493    Z=             -0.1880  Tot=              1.3641
 Quadrupole moment (field-independent basis, Debye-Ang):
   XX=            -88.2270   YY=            -97.3459   ZZ=            -86.1825
   XY=             -0.3613   XZ=             -3.3072   YZ=             -0.6001

  Exact polarizability:     137.915      -4.646     154.544     -17.918       0.601     123.023
 Approx polarizability:     185.968     -10.121     241.516     -40.876       1.616     217.990

 Summary of Natural Population Analysis:

                                       Natural Population
                Natural  -----------------------------------------------
    Atom  No    Charge         Core      Valence    Rydberg      Total
 -----------------------------------------------------------------------
      N    1   -0.79511      1.99945     5.77523    0.02043     7.79511
      H    2    0.32685      0.00000     0.66821    0.00495     0.67315
      H    3    0.33650      0.00000     0.65858    0.00492     0.66350
      N    4   -0.80006      1.99946     5.78014    0.02046     7.80006
      H    5    0.32802      0.00000     0.66729    0.00469     0.67198
      H    6    0.33617      0.00000     0.65891    0.00492     0.66383
      C    7   -0.02126      1.99891     3.99844    0.02391     6.02126
      H    8    0.19484      0.00000     0.80133    0.00383     0.80516
      C    9   -0.01774      1.99893     3.99576    0.02305     6.01774
      H   10    0.19354      0.00000     0.80293    0.00353     0.80646
      C   11   -0.04400      1.99897     4.02620    0.01882     6.04400
      C   12   -0.19253      1.99902     4.17791    0.01560     6.19253
      H   13    0.17570      0.00000     0.82083    0.00348     0.82430
      C   14   -0.16603      1.99910     4.15270    0.01423     6.16603
      H   15    0.17620      0.00000     0.82065    0.00315     0.82380
      C   16   -0.18892      1.99910     4.17575    0.01407     6.18892
      H   17    0.17931      0.00000     0.81765    0.00304     0.82069
      C   18   -0.15460      1.99911     4.14117    0.01432     6.15460
      H   19    0.17724      0.00000     0.81974    0.00301     0.82276
      C   20   -0.18701      1.99894     4.17305    0.01502     6.18701
      H   21    0.18130      0.00000     0.81548    0.00322     0.81870
      C   22   -0.04524      1.99897     4.02747    0.01880     6.04524
      C   23   -0.17290      1.99900     4.15901    0.01490     6.17290
      H   24    0.18159      0.00000     0.81540    0.00301     0.81841
      C   25   -0.16077      1.99910     4.14738    0.01429     6.16077
      H   26    0.17759      0.00000     0.81933    0.00308     0.82241
      C   27   -0.19120      1.99908     4.17805    0.01407     6.19120
      H   28    0.17968      0.00000     0.81720    0.00312     0.82032
      C   29   -0.15825      1.99911     4.14470    0.01444     6.15825
      H   30    0.17661      0.00000     0.82034    0.00305     0.82339
      C   31   -0.20205      1.99895     4.18779    0.01531     6.20205
      H   32    0.17651      0.00000     0.82005    0.00344     0.82349
 =======================================================================
   * Total *    0.00000     31.98519    81.68466    0.33015   114.00000

 ******   26 imaginary frequencies (negative Signs) ******

                      1                      2                      3
                      A                      A                      A
 Frequencies --  -1370.7402             -1340.7710             -1278.7765
 Red. masses --      1.0394                 1.0287                 1.0842
 Frc consts  --      1.1507                 1.0895                 1.0446
 IR Inten    --      7.6796                66.9191                93.5217

                      4                      5                      6
                      A                      A                      A
 Frequencies --  -1273.8289             -1178.4898             -1172.5977
 Red. masses --      1.0844                 1.0457                 1.0440
 Frc consts  --      1.0368                 0.8557                 0.8458
 IR Inten    --     76.5144                 2.6555                 6.2336

                      7                      8                      9
                      A                      A                      A
 Frequencies --  -1122.8370             -1116.6598             -1110.0226
 Red. masses --      1.0753                 1.0450                 1.0775
 Frc consts  --      0.7988                 0.7678                 0.7822
 IR Inten    --     27.4800                88.1052               146.6360

                     10                     11                     12
                      A                      A                      A
 Frequencies --  -1099.6568             -1045.1303             -1044.6224
 Red. masses --      1.1028                 1.0125                 1.0129
 Frc consts  --      0.7857                 0.6516                 0.6513
 IR Inten    --    225.4982                 1.6725                 1.1379

                     13                     14                     15
                      A                      A                      A
 Frequencies --   -951.7324              -946.0375              -715.2975
 Red. masses --      1.0289                 1.0281                 1.1766
 Frc consts  --      0.5491                 0.5421                 0.3547
 IR Inten    --      0.4868                 0.6086                 2.0674

                     16                     17                     18
                      A                      A                      A
 Frequencies --   -712.3909              -656.5381              -642.3805
 Red. masses --      1.1427                 1.1368                 1.1677
 Frc consts  --      0.3417                 0.2887                 0.2839
 IR Inten    --      1.0125                 1.8612                 0.3959

                     19                     20                     21
                      A                      A                      A
 Frequencies --   -631.1102              -628.6270              -581.3681
 Red. masses --      1.0961                 1.2412                 1.2603
 Frc consts  --      0.2572                 0.2890                 0.2510
 IR Inten    --      0.3381                 1.3790                 0.2302

                     22                     23                     24
                      A                      A                      A
 Frequencies --   -549.4961              -464.7628              -428.1064
 Red. masses --      1.2217                 1.2454                 1.3354
 Frc consts  --      0.2173                 0.1585                 0.1442
 IR Inten    --     12.9962                 1.7654                16.7202

                     25                     26                     27
                      A                      A                      A
 Frequencies --   -302.1386              -292.6812                48.9101
 Red. masses --      1.0534                 1.0456                 4.5362
 Frc consts  --      0.0567                 0.0528                 0.0064
 IR Inten    --     11.1004                11.0870                 0.0406

                     28                     29                     30
                      A                      A                      A
 Frequencies --     99.4244               171.6805               179.8419
 Red. masses --      3.8675                 7.0129                 7.6891
 Frc consts  --      0.0225                 0.1218                 0.1465
 IR Inten    --      0.1179                 0.1385                 0.2318

                     31                     32                     33
                      A                      A                      A
 Frequencies --    202.2950               287.4600               301.3369
 Red. masses --      7.5904                 3.9847                 5.5793
 Frc consts  --      0.1830                 0.1940                 0.2985
 IR Inten    --      0.4427                 1.9113                 0.5256

                     34                     35                     36
                      A                      A                      A
 Frequencies --    341.6950               397.6635               434.6967
 Red. masses --      2.0094                 7.0311                 4.2305
 Frc consts  --      0.1382                 0.6551                 0.4710
 IR Inten    --      4.8846                 2.0889                 1.1441

                     37                     38                     39
                      A                      A                      A
 Frequencies --    448.9171               546.9883               552.1385
 Red. masses --      5.8381                11.0616                11.1342
 Frc consts  --      0.6932                 1.9500                 1.9999
 IR Inten    --      0.9461                 0.0209                 0.0178

                     40                     41                     42
                      A                      A                      A
 Frequencies --    580.4059               606.5657               634.5322
 Red. masses --      2.4471                 2.2585                 3.6921
 Frc consts  --      0.4857                 0.4896                 0.8759
 IR Inten    --      1.4608                 1.7860                 0.0813

                     43                     44                     45
                      A                      A                      A
 Frequencies --    656.3090               739.3927               743.8049
 Red. masses --      6.3302                 2.5232                 2.9686
 Frc consts  --      1.6065                 0.8127                 0.9676
 IR Inten    --      0.1537                 3.0740                13.8166

                     46                     47                     48
                      A                      A                      A
 Frequencies --    773.1947               798.8742               799.7769
 Red. masses --      3.6613                 5.3627                 3.9331
 Frc consts  --      1.2896                 2.0165                 1.4823
 IR Inten    --     19.9765                 2.7667                 0.9323

                     49                     50                     51
                      A                      A                      A
 Frequencies --    809.7251               863.8800               877.5007
 Red. masses --      7.1426                 2.2361                 2.0046
 Frc consts  --      2.7592                 0.9832                 0.9094
 IR Inten    --      0.4995                 0.6134                 0.8467

                     52                     53                     54
                      A                      A                      A
 Frequencies --    923.9203               957.5049               979.2708
 Red. masses --      4.7696                 1.2133                 4.4395
 Frc consts  --      2.3989                 0.6554                 2.5084
 IR Inten    --     36.5121                 0.9225                24.9787

                     55                     56                     57
                      A                      A                      A
 Frequencies --   1037.7764              1051.7930              1057.4502
 Red. masses --      3.3609                 4.9933                 5.0610
 Frc consts  --      2.1326                 3.2546                 3.3343
 IR Inten    --      2.0629                 0.1725                 0.9833

                     58                     59                     60
                      A                      A                      A
 Frequencies --   1081.6065              1097.3869              1167.0877
 Red. masses --      3.2899                 4.7133                 2.6306
 Frc consts  --      2.2676                 3.3442                 2.1111
 IR Inten    --      8.8114                17.9094                 8.0570

                     61                     62                     63
                      A                      A                      A
 Frequencies --   1194.4209              1203.3983              1235.8089
 Red. masses --      1.9564                 3.1944                 1.8763
 Frc consts  --      1.6444                 2.7256                 1.6884
 IR Inten    --     12.0595                 6.1025                 8.3325

                     64                     65                     66
                      A                      A                      A
 Frequencies --   1249.4739              1358.8916              1385.9436
 Red. masses --      1.8915                 8.1181                 8.5419
 Frc consts  --      1.7398                 8.8323                 9.6671
 IR Inten    --      0.8024                 0.0888                 0.2356

                     67                     68                     69
                      A                      A                      A
 Frequencies --   1411.3988              1441.1418              1505.0026
 Red. masses --      7.3352                 8.5508                 8.8761
 Frc consts  --      8.6092                10.4634                11.8453
 IR Inten    --      0.7178                 3.2821                 1.2306

                     70                     71                     72
                      A                      A                      A
 Frequencies --   1516.1259              1648.9493              1653.9886
 Red. masses --      8.3186                10.3158                10.6538
 Frc consts  --     11.2661                16.5260                17.1719
 IR Inten    --      0.6340                 3.7674                 5.3842

                     73                     74                     75
                      A                      A                      A
 Frequencies --   1733.6004              1744.3142              4128.2015
 Red. masses --     10.3762                10.0604                 1.0883
 Frc consts  --     18.3733                18.0349                10.9276
 IR Inten    --      4.1685                 0.4890                 0.1610

                     76                     77                     78
                      A                      A                      A
 Frequencies --   4136.7435              4755.7574              4758.0818
 Red. masses --      1.0877                 1.0865                 1.0869
 Frc consts  --     10.9666                14.4780                14.4975
 IR Inten    --     16.5554                 0.1439                 0.5056

                     79                     80                     81
                      A                      A                      A
 Frequencies --   4762.6308              4763.3822              4764.8955
 Red. masses --      1.0880                 1.0887                 1.0896
 Frc consts  --     14.5407                14.5542                14.5761
 IR Inten    --      0.1236                 0.1836                 1.1780

                     82                     83                     84
                      A                      A                      A
 Frequencies --   4772.9215              4773.3014              4777.2450
 Red. masses --      1.0889                 1.0912                 1.0918
 Frc consts  --     14.6149                14.6478                14.6801
 IR Inten    --      1.7665                 1.4829                 1.1543

                     85                     86                     87
                      A                      A                      A
 Frequencies --   4778.6962              4784.6764              4808.2187
 Red. masses --      1.0934                 1.0923                 1.0499
 Frc consts  --     14.7118                14.7333                14.3014
 IR Inten    --      0.8092                 0.5356                 6.5099

                     88                     89                     90
                      A                      A                      A
 Frequencies --   4814.3656              4936.9451              4941.3716
 Red. masses --      1.0501                 1.0956                 1.0952
 Frc consts  --     14.3406                15.7330                15.7561
 IR Inten    --      5.8162                 8.0750                 9.9375

 - Thermochemistry -
 -------------------
 Temperature   298.150 Kelvin.  Pressure   1.00000 Atm.
 Atom     1 has atomic number  7 and mass  14.00307

 Molecular mass:   212.13135 amu.
 Principal axes and moments of inertia in atomic units:
                           1         2         3
     Eigenvalues --  2507.883293954.356795419.38849
           X            0.99997  -0.00341  -0.00688
           Y            0.00341   0.99999  -0.00012
           Z            0.00688   0.00010   0.99998
 This molecule is an asymmetric top.
 Rotational symmetry number  1.
 Warning -- assumption of classical behavior for rotation
           may cause significant error
 Rotational temperatures (Kelvin)      0.03454     0.02190     0.01598
 Rotational constants (GHZ):           0.71963     0.45639     0.33302
   26 imaginary frequencies ignored.
 Zero-point vibrational energy     705741.1 (Joules/Mol)
                                  168.67617 (Kcal/Mol)
 Warning -- explicit consideration of  15 degrees of freedom as
           vibrations may cause significant error
 Vibrational temperatures:     70.37   143.05   247.01   258.75   291.06
          (Kelvin)            413.59   433.56   491.62   572.15   625.43
                              645.89   786.99   794.40   835.07   872.71
                              912.95   944.28  1063.82  1070.17  1112.45
                             1149.40  1150.70  1165.01  1242.93  1262.53
                             1329.32  1377.64  1408.95  1493.13  1513.30
                             1521.44  1556.19  1578.89  1679.18  1718.51
                             1731.42  1778.05  1797.71  1955.14  1994.06
                             2030.69  2073.48  2165.36  2181.37  2372.47
                             2379.72  2494.26  2509.68  5939.56  5951.85
                             6842.47  6845.82  6852.36  6853.44  6855.62
                             6867.17  6867.72  6873.39  6875.48  6884.08
                             6917.95  6926.80  7103.16  7109.53

 Zero-point correction=                           0.268803 (Hartree/Particle)
 Thermal correction to Energy=                    0.279063
 Thermal correction to Enthalpy=                  0.280007
 Thermal correction to Gibbs Free Energy=         0.231696
 Sum of electronic and zero-point Energies=           -650.906837
 Sum of electronic and thermal Energies=              -650.896576
 Sum of electronic and thermal Enthalpies=            -650.895632
 Sum of electronic and thermal Free Energies=         -650.943943

                     E (Thermal)             CV                S
                      KCal/Mol        Cal/Mol-Kelvin    Cal/Mol-Kelvin
 Total                  175.115             40.702            101.680
 Electronic               0.000              0.000              0.000
 Translational            0.889              2.981             41.960
 Rotational               0.889              2.981             32.352
 Vibrational            173.337             34.741             27.368
 Vibration     1          0.595              1.978              4.861
 Vibration     2          0.604              1.950              3.466
 Vibration     3          0.626              1.877              2.417
 Vibration     4          0.629              1.867              2.330
 Vibration     5          0.639              1.837              2.112
 Vibration     6          0.685              1.697              1.489
 Vibration     7          0.693              1.671              1.409
 Vibration     8          0.721              1.592              1.204
 Vibration     9          0.764              1.475              0.971
 Vibration    10          0.795              1.395              0.843
 Vibration    11          0.808              1.363              0.799
 Vibration    12          0.902              1.146              0.550
 Vibration    13          0.907              1.135              0.540
 Vibration    14          0.937              1.074              0.485
 Vibration    15          0.965              1.018              0.439

 1\1\GINC-JST373\Freq\RPBE1PBE\def2SVP\C14H16N2\LAPLAZA\04-Mar-2023\0\\
 #p pop=(regular,nbo,savenbos) freq=noraman def2svp empiricaldispersion
 =gd3bj output=wfx pbe1pbe\\QIVWID_Complex_0_Ligand_1_NN_Cu_oriented\\0
 ,1\N,0.45117493,-1.95928082,0.\H,0.66392617,-2.23547091,-0.85167958\H,
 1.17492734,-2.1170728,0.54573316\N,-1.90275189,-0.63315997,0.\H,-2.298
 76374,-0.41791013,0.80187029\H,-2.36800253,-0.21020586,-0.67151049\C,-
 0.72973933,-2.70271686,0.4948658\H,-0.81644613,-2.51238007,1.47257607\
 C,-1.96815245,-2.10902148,-0.20534251\H,-1.90232365,-2.29981558,-1.185

 Normal termination of Gaussian 16 at Sat Mar  4 12:22:00 2023.
