 Gaussian 16, Revision C.01,
 Gaussian 16:  ES64L-G16RevC.01  3-Jul-2019

 ----------------------------------------------------------------------
 #p pop=(regular,nbo,savenbos) freq=noraman def2svp empiricaldispersion
 =gd3bj output=wfx pbe1pbe
 ----------------------------------------------------------------------

 ----------------------------------------
 QUJSAQ_Complex_4_Ligand_1_ON_Cu_oriented
 ----------------------------------------
 Symbolic Z-matrix:
 Charge = -1 Multiplicity = 1

                         Standard orientation:
 ---------------------------------------------------------------------
 Center     Atomic      Atomic             Coordinates (Angstroms)
 Number     Number       Type             X           Y           Z
 ---------------------------------------------------------------------
      1          8           0        2.919069   -2.438088   -0.698184
      2          8           0       -0.255599   -0.690043   -0.550140
      3          6           0        2.549887   -0.119752   -0.240415
      4          1           0        2.375285   -0.156724    0.712694
      5          6           0        2.041206   -1.359399   -0.903406
      6          1           0        2.001726   -1.186611   -1.867259
      7          6           0        0.686247   -1.776153   -0.463928
      8          1           0        0.380283   -2.509896   -1.019108
      9          1           0        0.729292   -2.091264    0.452210
     10          6           0       -1.540830   -0.892262   -0.098737
     11          6           0       -2.017924   -2.068134    0.390067
     12          1           0       -1.459922   -2.810400    0.438013
     13          6           0       -3.349890   -2.167363    0.825764
     14          1           0       -3.666819   -2.981605    1.143173
     15          6           0       -4.177732   -1.105826    0.790768
     16          1           0       -5.059585   -1.197149    1.072787
     17          6           0       -3.716180    0.140215    0.331027
     18          6           0       -4.540228    1.291835    0.236001
     19          1           0       -5.428886    1.236828    0.504770
     20          6           0       -4.064738    2.474551   -0.237272
     21          1           0       -4.633321    3.205605   -0.311993
     22          6           0       -2.721332    2.592428   -0.611513
     23          1           0       -2.389781    3.412117   -0.901012
     24          6           0       -1.905451    1.512623   -0.552291
     25          1           0       -1.015908    1.600043   -0.809419
     26          6           0       -2.371694    0.271723   -0.111885
     27          7           0        3.993955   -0.029133   -0.485353
     28          1           0        4.105203    0.194760   -1.360112
     29          6           0        4.737510    0.644253    1.792293
     30          1           0        3.843314    0.660960    2.141098
     31          1           0        5.278509    1.278611    2.268623
     32          1           0        5.106084   -0.235665    1.899274
     33          6           0        4.713133    1.003659    0.331089
     34          1           0        5.643441    1.018170    0.020573
     35          6           0        4.139108    2.399854    0.098427
     36          1           0        4.003144    2.538243   -0.841790
     37          1           0        4.753796    3.057242    0.431987
     38          1           0        3.301443    2.481349    0.557753
     39          1           0        2.100712    0.660847   -0.604144
 ---------------------------------------------------------------------

 SCF Done:  E(RPBE1PBE) =  -825.022924658     A.U. after   23 cycles

 The electronic state is 1-A.
 Alpha  occ. eigenvalues --  -19.10632 -18.86271 -14.19490 -10.18185 -10.14322
 Alpha  occ. eigenvalues --  -10.13535 -10.12647 -10.12563 -10.12127 -10.12024
 Alpha  occ. eigenvalues --  -10.11734 -10.11193 -10.11072 -10.10535 -10.08519
 Alpha  occ. eigenvalues --  -10.06346 -10.05833 -10.04408 -10.03948  -0.94250
 Alpha  occ. eigenvalues --   -0.80042  -0.78001  -0.75324  -0.71142  -0.69579
 Alpha  occ. eigenvalues --   -0.67386  -0.66812  -0.64970  -0.62121  -0.59139
 Alpha  occ. eigenvalues --   -0.56198  -0.55855  -0.54591  -0.51387  -0.47919
 Alpha  occ. eigenvalues --   -0.46590  -0.45076  -0.43569  -0.42901  -0.39229
 Alpha  occ. eigenvalues --   -0.38444  -0.37472  -0.36691  -0.35756  -0.35350
 Alpha  occ. eigenvalues --   -0.34916  -0.33990  -0.33889  -0.31877  -0.31493
 Alpha  occ. eigenvalues --   -0.30933  -0.29969  -0.29337  -0.27779  -0.26826
 Alpha  occ. eigenvalues --   -0.25881  -0.25587  -0.24662  -0.23992  -0.22879
 Alpha  occ. eigenvalues --   -0.22326  -0.19352  -0.19196  -0.17011  -0.16232
 Alpha  occ. eigenvalues --   -0.11638  -0.11229  -0.06554   0.02847   0.03216
 Alpha virt. eigenvalues --    0.06578   0.08734   0.14314   0.18424   0.18682
 Alpha virt. eigenvalues --    0.19926   0.20488   0.21514   0.22325   0.23053
 Alpha virt. eigenvalues --    0.23941   0.24751   0.25236   0.26348   0.26806

 Mulliken charges:
               1
     1  O   -0.686906
     2  O   -0.385326
     3  C    0.280126
     4  H   -0.095289
     5  C    0.164008
     6  H   -0.134541
     7  C    0.315930
     8  H   -0.057947
     9  H   -0.071431
    10  C    0.262072
    11  C   -0.027891
    12  H   -0.114947
    13  C    0.135350
    14  H   -0.114776
    15  C    0.060448
    16  H   -0.146348
    17  C    0.037332
    18  C    0.067935
    19  H   -0.136154
    20  C    0.101592
    21  H   -0.117967
    22  C    0.096802
    23  H   -0.113796
    24  C    0.113354
    25  H   -0.114728
    26  C   -0.032330
    27  N   -0.220961
    28  H    0.038524
    29  C    0.227101
    30  H   -0.039776
    31  H   -0.061660
    32  H   -0.019896
    33  C   -0.097990
    34  H   -0.054809
    35  C    0.184029
    36  H   -0.050082
    37  H   -0.062997
    38  H   -0.030124
    39  H   -0.095928
 Sum of Mulliken charges =  -1.00000

 Dipole moment (field-independent basis, Debye):
    X=             -8.8145    Y=              7.3752    Z=              2.0025  Tot=             11.6661
 Quadrupole moment (field-independent basis, Debye-Ang):
   XX=           -162.9227   YY=           -134.8649   ZZ=           -118.9758
   XY=             25.8597   XZ=              3.4817   YZ=             -7.9982

  Exact polarizability:     369.593     -55.305     219.402     -31.241     -11.379     118.452
 Approx polarizability:     542.268    -122.746     374.026     -65.777     -22.185     181.124

 Summary of Natural Population Analysis:

                                       Natural Population
                Natural  -----------------------------------------------
    Atom  No    Charge         Core      Valence    Rydberg      Total
 -----------------------------------------------------------------------
      O    1   -0.94155      1.99988     6.93394    0.00774     8.94155
      O    2   -0.57248      1.99967     6.56223    0.01058     8.57248
      C    3   -0.19766      1.99898     4.17575    0.02293     6.19766
      H    4    0.15278      0.00000     0.83840    0.00881     0.84722
      C    5    0.13872      1.99904     3.82512    0.03712     5.86128
      H    6    0.10511      0.00000     0.88435    0.01055     0.89489
      C    7   -0.02284      1.99883     3.99777    0.02624     6.02284
      H    8    0.15188      0.00000     0.83935    0.00877     0.84812
      H    9    0.14221      0.00000     0.84332    0.01447     0.85779
      C   10    0.38874      1.99867     3.58840    0.02419     5.61126
      C   11   -0.28571      1.99895     4.27198    0.01478     6.28571
      H   12    0.18734      0.00000     0.80986    0.00280     0.81266
      C   13   -0.14443      1.99910     4.13082    0.01451     6.14443
      H   14    0.16316      0.00000     0.83364    0.00321     0.83684
      C   15   -0.22282      1.99902     4.20723    0.01657     6.22282
      H   16    0.16580      0.00000     0.83081    0.00339     0.83420
      C   17   -0.04436      1.99899     4.03012    0.01525     6.04436
      C   18   -0.17006      1.99904     4.15521    0.01581     6.17006
      H   19    0.16284      0.00000     0.83376    0.00341     0.83716
      C   20   -0.18070      1.99911     4.16710    0.01449     6.18070
      H   21    0.16081      0.00000     0.83602    0.00316     0.83919
      C   22   -0.18908      1.99910     4.17537    0.01461     6.18908
      H   23    0.16403      0.00000     0.83286    0.00310     0.83597
      C   24   -0.13403      1.99902     4.11783    0.01717     6.13403
      H   25    0.18727      0.00000     0.80796    0.00477     0.81273
      C   26   -0.09527      1.99889     4.08067    0.01572     6.09527
      N   27   -0.65522      1.99939     5.63541    0.02043     7.65522
      H   28    0.31338      0.00000     0.67808    0.00854     0.68662
      C   29   -0.55886      1.99915     4.54971    0.01000     6.55886
      H   30    0.18155      0.00000     0.81554    0.00292     0.81845
      H   31    0.16995      0.00000     0.82722    0.00283     0.83005
      H   32    0.19536      0.00000     0.79932    0.00532     0.80464
      C   33    0.03945      1.99911     3.94580    0.01564     5.96055
      H   34    0.15778      0.00000     0.83765    0.00457     0.84222
      C   35   -0.57572      1.99915     4.56698    0.00959     6.57572
      H   36    0.17876      0.00000     0.81732    0.00391     0.82124
      H   37    0.16955      0.00000     0.82613    0.00432     0.83045
      H   38    0.18114      0.00000     0.81575    0.00311     0.81886
      H   39    0.13320      0.00000     0.85772    0.00908     0.86680
 =======================================================================
   * Total *   -1.00000     37.98310   101.58250    0.43440   140.00000

 ******   32 imaginary frequencies (negative Signs) ******

                      1                      2                      3
                      A                      A                      A
 Frequencies --  -1461.4027             -1443.6738             -1394.4480
 Red. masses --      1.0886                 1.0743                 1.0089
 Frc consts  --      1.3698                 1.3193                 1.1558
 IR Inten    --     27.8346                85.4596                 0.3144

                      4                      5                      6
                      A                      A                      A
 Frequencies --  -1388.4185             -1371.9171             -1350.1383
 Red. masses --      1.0089                 1.0440                 1.0419
 Frc consts  --      1.1459                 1.1577                 1.1190
 IR Inten    --      0.1285                 0.2932                 2.9841

                      7                      8                      9
                      A                      A                      A
 Frequencies --  -1262.4918             -1254.9480             -1222.0802
 Red. masses --      1.0874                 1.0286                 1.0344
 Frc consts  --      1.0211                 0.9544                 0.9102
 IR Inten    --     64.9787                 1.9015                 1.6610

                     10                     11                     12
                      A                      A                      A
 Frequencies --  -1183.3395             -1084.5674             -1053.2434
 Red. masses --      1.0344                 1.0321                 1.0653
 Frc consts  --      0.8534                 0.7153                 0.6963
 IR Inten    --      0.2085                 0.1452                12.3579

                     13                     14                     15
                      A                      A                      A
 Frequencies --  -1033.0428             -1023.7657             -1011.4531
 Red. masses --      1.0329                 1.0550                 1.0365
 Frc consts  --      0.6495                 0.6515                 0.6248
 IR Inten    --      0.7864                 1.5510                 5.7700

                     16                     17                     18
                      A                      A                      A
 Frequencies --   -998.4933              -945.7099              -925.3265
 Red. masses --      1.0359                 1.0855                 1.0863
 Frc consts  --      0.6085                 0.5720                 0.5480
 IR Inten    --      0.9567                 0.7449                 0.2692

                     19                     20                     21
                      A                      A                      A
 Frequencies --   -877.3599              -829.5459              -771.9179
 Red. masses --      1.1398                 1.1213                 1.0701
 Frc consts  --      0.5169                 0.4546                 0.3757
 IR Inten    --      2.0111                11.0308                12.4568

                     22                     23                     24
                      A                      A                      A
 Frequencies --   -758.9552              -735.1697              -629.5974
 Red. masses --      1.0674                 1.0648                 1.3649
 Frc consts  --      0.3622                 0.3391                 0.3188
 IR Inten    --     11.0127                 0.6856                12.7400

                     25                     26                     27
                      A                      A                      A
 Frequencies --   -521.9408              -464.4966              -420.0869
 Red. masses --      1.3175                 1.7222                 1.8146
 Frc consts  --      0.2115                 0.2189                 0.1887
 IR Inten    --      7.0499                76.5167                 4.9979

                     28                     29                     30
                      A                      A                      A
 Frequencies --   -378.1718              -356.7898              -297.4279
 Red. masses --      1.4529                 1.9218                 1.7279
 Frc consts  --      0.1224                 0.1441                 0.0901
 IR Inten    --      2.3787                 0.4601                 2.5202

                     31                     32                     33
                      A                      A                      A
 Frequencies --   -212.6937              -148.6397               174.8185
 Red. masses --      2.0505                 4.0709                 4.4440
 Frc consts  --      0.0547                 0.0530                 0.0800
 IR Inten    --      3.0339                 2.1869                 1.5387

                     34                     35                     36
                      A                      A                      A
 Frequencies --    203.8650               208.0661               218.5800
 Red. masses --      3.0277                 4.8323                 1.6946
 Frc consts  --      0.0741                 0.1233                 0.0477
 IR Inten    --     14.7188                 5.3111                 8.9156

                     37                     38                     39
                      A                      A                      A
 Frequencies --    257.9140               298.6919               327.0206
 Red. masses --      9.5286                 7.8104                 7.9660
 Frc consts  --      0.3734                 0.4106                 0.5019
 IR Inten    --      1.4066                18.2752                 1.1007

                     40                     41                     42
                      A                      A                      A
 Frequencies --    355.6395               379.7859               392.7666
 Red. masses --      3.9892                 1.2301                 3.4776
 Frc consts  --      0.2973                 0.1045                 0.3161
 IR Inten    --      0.6598                16.7236                 3.0561

                     43                     44                     45
                      A                      A                      A
 Frequencies --    498.8923               523.4141               537.8707
 Red. masses --      3.1667                 5.8871                 5.5141
 Frc consts  --      0.4644                 0.9503                 0.9399
 IR Inten    --      7.8971                 7.7557                 6.4832

                     46                     47                     48
                      A                      A                      A
 Frequencies --    555.2002               572.9504               592.3914
 Red. masses --      4.6203                 9.6593                 2.7268
 Frc consts  --      0.8391                 1.8682                 0.5638
 IR Inten    --     61.6440                 2.6569                13.3552

                     49                     50                     51
                      A                      A                      A
 Frequencies --    636.7225               649.6094               658.8192
 Red. masses --      4.9275                 3.8621                 3.5323
 Frc consts  --      1.1770                 0.9602                 0.9033
 IR Inten    --      0.1122                 2.0640                 9.3172

                     52                     53                     54
                      A                      A                      A
 Frequencies --    672.0875               688.6636               714.6506
 Red. masses --      6.5742                 4.1045                 3.3131
 Frc consts  --      1.7496                 1.1469                 0.9969
 IR Inten    --      3.5917                12.9168                55.8672

                     55                     56                     57
                      A                      A                      A
 Frequencies --    733.3478               747.9020               755.4529
 Red. masses --      4.3751                 4.9804                 2.9858
 Frc consts  --      1.3863                 1.6414                 1.0040
 IR Inten    --      4.3297                23.6161                13.3257

                     58                     59                     60
                      A                      A                      A
 Frequencies --    775.4487               802.2666               803.4216
 Red. masses --      2.5087                 4.1128                 1.8557
 Frc consts  --      0.8888                 1.5596                 0.7057
 IR Inten    --     34.6042                 1.1393                16.7998

                     61                     62                     63
                      A                      A                      A
 Frequencies --    828.1931               851.0514               881.1930
 Red. masses --      2.0833                 2.6480                10.7088
 Frc consts  --      0.8419                 1.1300                 4.8993
 IR Inten    --     25.0058                 4.4667                 1.0214

                     64                     65                     66
                      A                      A                      A
 Frequencies --    890.4793               894.0729               925.3651
 Red. masses --      3.7506                 2.5039                 1.9914
 Frc consts  --      1.7522                 1.1793                 1.0047
 IR Inten    --     11.8224                 5.3734                11.4456

                     67                     68                     69
                      A                      A                      A
 Frequencies --    948.2120               962.1267               964.3898
 Red. masses --      1.5263                 3.4692                 1.1408
 Frc consts  --      0.8085                 1.8921                 0.6251
 IR Inten    --      8.9732                 5.0012                 6.0319

                     70                     71                     72
                      A                      A                      A
 Frequencies --    981.4286               987.7822               992.8435
 Red. masses --      1.0442                 1.3454                 1.6082
 Frc consts  --      0.5926                 0.7734                 0.9340
 IR Inten    --      2.3906                49.9787                 8.3312

                     73                     74                     75
                      A                      A                      A
 Frequencies --   1055.6208              1063.0834              1101.0971
 Red. masses --      3.2081                 2.5642                 1.7322
 Frc consts  --      2.1063                 1.7074                 1.2374
 IR Inten    --     17.2339                 9.7422                 2.8633

                     76                     77                     78
                      A                      A                      A
 Frequencies --   1140.8321              1146.0177              1173.8389
 Red. masses --      3.7377                 3.5681                 4.8021
 Frc consts  --      2.8661                 2.7610                 3.8985
 IR Inten    --     15.0972                25.9702                 8.6170

                     79                     80                     81
                      A                      A                      A
 Frequencies --   1189.1729              1217.8871              1271.9511
 Red. masses --      3.5007                 7.7030                 5.2024
 Frc consts  --      2.9167                 6.7317                 4.9590
 IR Inten    --     29.7854                15.6348                17.6334

                     82                     83                     84
                      A                      A                      A
 Frequencies --   1322.2603              1336.4257              1361.3749
 Red. masses --      8.1604                 8.5583                 8.3937
 Frc consts  --      8.4062                 9.0059                 9.1656
 IR Inten    --     16.6373                 4.8071                34.7870

                     85                     86                     87
                      A                      A                      A
 Frequencies --   1464.9135              1472.6478              1523.2404
 Red. masses --      9.9135                 9.5598                 9.4688
 Frc consts  --     12.5343                12.2151                12.9444
 IR Inten    --      2.3792                21.7614               139.4713

                     88                     89                     90
                      A                      A                      A
 Frequencies --   1558.3371              1681.8621              1695.1797
 Red. masses --      9.8605                10.3732                 9.9983
 Frc consts  --     14.1083                17.2879                16.9281
 IR Inten    --     61.5401               276.0367                40.8052

                     91                     92                     93
                      A                      A                      A
 Frequencies --   1738.6817              4284.5880              4342.6529
 Red. masses --     10.9646                 1.0856                 1.0878
 Frc consts  --     19.5292                11.7416                12.0868
 IR Inten    --     23.8352               179.7387                53.9700

                     94                     95                     96
                      A                      A                      A
 Frequencies --   4386.4569              4425.4948              4466.4040
 Red. masses --      1.0599                 1.0583                 1.0321
 Frc consts  --     12.0158                12.2120                12.1311
 IR Inten    --     12.8429                13.9339                12.0765

                     97                     98                     99
                      A                      A                      A
 Frequencies --   4467.9133              4524.2411              4551.6979
 Red. masses --      1.0323                 1.1066                 1.1107
 Frc consts  --     12.1409                13.3457                13.5574
 IR Inten    --     20.9252                25.5206                19.2995

                    100                    101                    102
                      A                      A                      A
 Frequencies --   4667.4872              4668.8629              4679.5176
 Red. masses --      1.1065                 1.1062                 1.1067
 Frc consts  --     14.2026                14.2073                14.2790
 IR Inten    --     15.3552                28.7686                 3.0408

                    103                    104                    105
                      A                      A                      A
 Frequencies --   4686.3093              5010.6964              5018.8623
 Red. masses --      1.1067                 1.0752                 1.0875
 Frc consts  --     14.3200                15.9049                16.1389
 IR Inten    --     10.1252                 1.5659                 0.1351

                    106                    107                    108
                      A                      A                      A
 Frequencies --   5021.2979              5026.4532              5033.4239
 Red. masses --      1.0870                 1.0881                 1.0886
 Frc consts  --     16.1471                16.1972                16.2494
 IR Inten    --      1.2611                 1.1261                 4.4921

                    109                    110                    111
                      A                      A                      A
 Frequencies --   5038.5431              5042.7356              5046.5858
 Red. masses --      1.0903                 1.0914                 1.0916
 Frc consts  --     16.3082                16.3523                16.3793
 IR Inten    --      0.6158                 0.6408                 3.6381

 - Thermochemistry -
 -------------------
 Temperature   298.150 Kelvin.  Pressure   1.00000 Atm.
 Atom     1 has atomic number  8 and mass  15.99491

 Molecular mass:   258.14940 amu.
 Principal axes and moments of inertia in atomic units:
                           1         2         3
     Eigenvalues --  2819.81411********************
           X            0.99986   0.01622   0.00496
           Y           -0.01620   0.99986  -0.00523
           Z           -0.00504   0.00515   0.99997
 This molecule is an asymmetric top.
 Rotational symmetry number  1.
 Warning -- assumption of classical behavior for rotation
           may cause significant error
 Rotational temperatures (Kelvin)      0.03072     0.00844     0.00710
 Rotational constants (GHZ):           0.64002     0.17581     0.14795
   32 imaginary frequencies ignored.
 Zero-point vibrational energy     871766.9 (Joules/Mol)
                                  208.35729 (Kcal/Mol)
 Warning -- explicit consideration of  16 degrees of freedom as
           vibrations may cause significant error
 Vibrational temperatures:    251.52   293.32   299.36   314.49   371.08
          (Kelvin)            429.75   470.51   511.69   546.43   565.10
                              717.79   753.08   773.88   798.81   824.35
                              852.32   916.10   934.64   947.89   966.98
                              990.83  1028.22  1055.12  1076.06  1086.93
                             1115.70  1154.28  1155.94  1191.59  1224.47
                             1267.84  1281.20  1286.37  1331.39  1364.27
                             1384.29  1387.54  1412.06  1421.20  1428.48
                             1518.80  1529.54  1584.23  1641.40  1648.86
                             1688.89  1710.95  1752.27  1830.05  1902.44
                             1922.82  1958.71  2107.68  2118.81  2191.60
                             2242.10  2419.82  2438.99  2501.58  6164.57
                             6248.11  6311.13  6367.30  6426.16  6428.33
                             6509.37  6548.88  6715.47  6717.45  6732.78
                             6742.55  7209.27  7221.02  7224.53  7231.95
                             7241.97  7249.34  7255.37  7260.91

 Zero-point correction=                           0.332038 (Hartree/Particle)
 Thermal correction to Energy=                    0.342675
 Thermal correction to Enthalpy=                  0.343619
 Thermal correction to Gibbs Free Energy=         0.295259
 Sum of electronic and zero-point Energies=           -824.690886
 Sum of electronic and thermal Energies=              -824.680250
 Sum of electronic and thermal Enthalpies=            -824.679305
 Sum of electronic and thermal Free Energies=         -824.727666

                     E (Thermal)             CV                S
                      KCal/Mol        Cal/Mol-Kelvin    Cal/Mol-Kelvin
 Total                  215.032             47.978            101.783
 Electronic               0.000              0.000              0.000
 Translational            0.889              2.981             42.545
 Rotational               0.889              2.981             34.223
 Vibrational            213.254             42.016             25.015
 Vibration     1          0.627              1.873              2.383
 Vibration     2          0.640              1.834              2.098
 Vibration     3          0.641              1.828              2.061
 Vibration     4          0.646              1.813              1.971
 Vibration     5          0.667              1.749              1.676
 Vibration     6          0.692              1.676              1.424
 Vibration     7          0.711              1.621              1.275
 Vibration     8          0.731              1.564              1.141
 Vibration     9          0.750              1.513              1.040
 Vibration    10          0.760              1.486              0.990
 Vibration    11          0.854              1.252              0.661
 Vibration    12          0.878              1.198              0.602
 Vibration    13          0.893              1.166              0.570
 Vibration    14          0.911              1.128              0.533
 Vibration    15          0.929              1.090              0.499
 Vibration    16          0.950              1.048              0.463

 Normal termination of Gaussian 16 at Mon Mar  6 11:30:45 2023.
