 Gaussian 16, Revision C.01,
 Gaussian 16:  ES64L-G16RevC.01  3-Jul-2019

 ----------------------------------------------------------------------
 #p pop=(regular,nbo,savenbos) freq=noraman def2svp empiricaldispersion
 =gd3bj output=wfx pbe1pbe
 ----------------------------------------------------------------------

 ----------------------------------------
 QUQHIW_Complex_0_Ligand_1_ON_Cu_oriented
 ----------------------------------------
 Symbolic Z-matrix:
 Charge = -1 Multiplicity = 1

                         Standard orientation:
 ---------------------------------------------------------------------
 Center     Atomic      Atomic             Coordinates (Angstroms)
 Number     Number       Type             X           Y           Z
 ---------------------------------------------------------------------
      1          8           0       -1.016238    1.438418   -1.287587
      2          8           0       -0.824270    2.280778    0.772888
      3          6           0       -0.634743    1.404376   -0.033170
      4          6           0        0.259068    0.177698    0.283461
      5          6           0        1.671172    0.609451   -0.064453
      6          1           0        1.870589    1.424804    0.421460
      7          1           0        1.701274    0.821372   -1.011136
      8          6           0        2.768574   -0.403934    0.232328
      9          1           0        2.627671   -1.209546   -0.289716
     10          1           0        2.754766   -0.642715    1.172944
     11          7           0       -0.198994   -0.978038   -0.524777
     12          1           0        0.553829   -1.587984   -0.680936
     13          6           0       -1.314218   -1.712938    0.129940
     14          1           0       -1.478706   -2.528898   -0.367994
     15          1           0       -1.032389   -1.967748    1.022738
     16          6           0       -2.573275   -0.969339    0.234416
     17          8           0       -3.281960   -0.842598   -0.941400
     18          6           0       -3.245300   -0.360743    1.210815
     19          6           0       -4.409928   -0.118142   -0.608995
     20          1           0       -5.066223    0.135915   -1.215104
     21          6           0       -4.431894    0.161244    0.676534
     22          1           0       -5.101419    0.617739    1.136583
     23         16           0        4.350806    0.342653   -0.194638
     24          6           0        5.504611   -0.934591    0.255650
     25          1           0        6.401585   -0.603775    0.171653
     26          1           0        5.388468   -1.692579   -0.323995
     27          1           0       -2.973830   -0.291222    2.097538
     28          1           0        0.201835   -0.038671    1.238137
     29          1           0        5.347956   -1.204155    1.165123
 ---------------------------------------------------------------------

 SCF Done:  E(RPBE1PBE) =  -1066.39341974     A.U. after   17 cycles

 The electronic state is 1-A.
 Alpha  occ. eigenvalues --  -88.88320 -19.13833 -18.93897 -18.91012 -14.22403
 Alpha  occ. eigenvalues --  -10.14811 -10.13579 -10.12871 -10.11964 -10.11314
 Alpha  occ. eigenvalues --  -10.09523 -10.08355 -10.08017 -10.08011 -10.07084
 Alpha  occ. eigenvalues --   -7.88516  -5.82800  -5.82385  -5.81682  -0.98639
 Alpha  occ. eigenvalues --   -0.83242  -0.78245  -0.74441  -0.70819  -0.70402
 Alpha  occ. eigenvalues --   -0.69094  -0.65977  -0.60897  -0.57148  -0.52793
 Alpha  occ. eigenvalues --   -0.50240  -0.49352  -0.46492  -0.44193  -0.39564
 Alpha  occ. eigenvalues --   -0.38852  -0.38214  -0.37478  -0.36364  -0.33984
 Alpha  occ. eigenvalues --   -0.33309  -0.32298  -0.31202  -0.30917  -0.29864
 Alpha  occ. eigenvalues --   -0.28007  -0.26197  -0.25516  -0.24306  -0.23856
 Alpha  occ. eigenvalues --   -0.22258  -0.21570  -0.18465  -0.17615  -0.16689
 Alpha  occ. eigenvalues --   -0.12766  -0.11191  -0.09170  -0.03766  -0.03212
 Alpha  occ. eigenvalues --   -0.00852
 Alpha virt. eigenvalues --    0.14109   0.15679   0.17193   0.20089   0.21150
 Alpha virt. eigenvalues --    0.21460   0.22451   0.22627   0.22894   0.23952
 Alpha virt. eigenvalues --    0.25348   0.25796   0.27154   0.27230   0.28240

 Mulliken charges:
               1
     1  O   -0.501885
     2  O   -0.370234
     3  C    0.127060
     4  C    0.031617
     5  C    0.119408
     6  H   -0.020308
     7  H   -0.020210
     8  C    0.009530
     9  H   -0.003231
    10  H   -0.005910
    11  N   -0.258580
    12  H    0.060510
    13  C    0.429359
    14  H   -0.059983
    15  H   -0.085366
    16  C    0.007667
    17  O   -0.272818
    18  C    0.048701
    19  C    0.285076
    20  H   -0.106497
    21  C    0.043511
    22  H   -0.119068
    23  S   -0.189947
    24  C    0.059719
    25  H    0.004911
    26  H    0.009884
    27  H   -0.129347
    28  H   -0.099736
    29  H    0.006167
 Sum of Mulliken charges =  -1.00000

 Dipole moment (field-independent basis, Debye):
    X=              3.9699    Y=             -8.7965    Z=              3.2836  Tot=             10.1942
 Quadrupole moment (field-independent basis, Debye-Ang):
   XX=           -109.3280   YY=           -113.7175   ZZ=           -105.5079
   XY=             -2.4805   XZ=             -0.6476   YZ=             -0.0882

  Exact polarizability:     169.253     -14.852     104.670       1.170       1.379     102.980
 Approx polarizability:     195.378     -22.392     154.414       2.169       8.886     179.226

 Summary of Natural Population Analysis:

                                       Natural Population
                Natural  -----------------------------------------------
    Atom  No    Charge         Core      Valence    Rydberg      Total
 -----------------------------------------------------------------------
      O    1   -0.80951      1.99979     6.80172    0.00800     8.80951
      O    2   -0.75364      1.99970     6.74294    0.01099     8.75364
      C    3    0.77600      1.99942     3.14577    0.07881     5.22400
      C    4   -0.10954      1.99891     4.08465    0.02598     6.10954
      C    5   -0.36548      1.99900     4.35062    0.01586     6.36548
      H    6    0.19998      0.00000     0.79267    0.00735     0.80002
      H    7    0.20021      0.00000     0.79068    0.00911     0.79979
      C    8   -0.44554      1.99900     4.43082    0.01572     6.44554
      H    9    0.17518      0.00000     0.82020    0.00462     0.82482
      H   10    0.17947      0.00000     0.81576    0.00477     0.82053
      N   11   -0.68213      1.99941     5.66534    0.01738     7.68213
      H   12    0.33108      0.00000     0.66164    0.00728     0.66892
      C   13   -0.19843      1.99890     4.18280    0.01673     6.19843
      H   14    0.18949      0.00000     0.80666    0.00385     0.81051
      H   15    0.16392      0.00000     0.83121    0.00488     0.83608
      C   16    0.33585      1.99889     3.63505    0.03021     5.66415
      O   17   -0.47526      1.99968     6.46561    0.00998     8.47526
      C   18   -0.27038      1.99894     4.25633    0.01510     6.27038
      C   19    0.17749      1.99878     3.79988    0.02386     5.82251
      H   20    0.13768      0.00000     0.85970    0.00262     0.86232
      C   21   -0.27301      1.99914     4.26017    0.01370     6.27301
      H   22    0.17162      0.00000     0.82601    0.00237     0.82838
      S   23    0.09214      9.99933     5.87221    0.03632    15.90786
      C   24   -0.63604      1.99904     4.62850    0.00849     6.63604
      H   25    0.19600      0.00000     0.80204    0.00196     0.80400
      H   26    0.18371      0.00000     0.81305    0.00323     0.81629
      H   27    0.17797      0.00000     0.81906    0.00297     0.82203
      H   28    0.14602      0.00000     0.84406    0.00992     0.85398
      H   29    0.18515      0.00000     0.81161    0.00324     0.81485
 =======================================================================
   * Total *   -1.00000     37.98793    83.61678    0.39529   122.00000

 ******   21 imaginary frequencies (negative Signs) ******

                      1                      2                      3
                      A                      A                      A
 Frequencies --  -1477.8381             -1400.8049             -1378.7163
 Red. masses --      1.0729                 1.0102                 1.0619
 Frc consts  --      1.3806                 1.1679                 1.1893
 IR Inten    --     53.9740                 0.4167                25.3635

                      4                      5                      6
                      A                      A                      A
 Frequencies --  -1297.9985             -1091.4428             -1080.5904
 Red. masses --      1.0468                 1.0356                 1.0308
 Frc consts  --      1.0392                 0.7268                 0.7091
 IR Inten    --      0.0994                 2.2243                 3.0570

                      7                      8                      9
                      A                      A                      A
 Frequencies --  -1050.0736             -1045.0554             -1023.7593
 Red. masses --      1.0397                 1.0546                 1.0356
 Frc consts  --      0.6755                 0.6786                 0.6395
 IR Inten    --      0.5265                 8.7085                16.1784

                     10                     11                     12
                      A                      A                      A
 Frequencies --   -985.9967              -921.0981              -891.0759
 Red. masses --      1.0502                 1.0524                 1.0653
 Frc consts  --      0.6015                 0.5261                 0.4984
 IR Inten    --     11.7663                 9.1192                 9.1526

                     13                     14                     15
                      A                      A                      A
 Frequencies --   -603.5827              -535.0784              -513.7564
 Red. masses --      1.2022                 1.2255                 1.2997
 Frc consts  --      0.2581                 0.2067                 0.2021
 IR Inten    --      0.1906                16.6973                14.0300

                     16                     17                     18
                      A                      A                      A
 Frequencies --   -491.2415              -405.1983              -385.8167
 Red. masses --      1.2133                 1.5249                 1.6597
 Frc consts  --      0.1725                 0.1475                 0.1456
 IR Inten    --     49.5400                 1.5619                 1.2589

                     19                     20                     21
                      A                      A                      A
 Frequencies --   -330.7496              -253.4272              -123.1945
 Red. masses --      1.9063                 1.8994                11.1730
 Frc consts  --      0.1229                 0.0719                 0.0999
 IR Inten    --      1.5648                22.3915                 1.1984

                     22                     23                     24
                      A                      A                      A
 Frequencies --     90.6340               123.1922               161.3738
 Red. masses --      8.3200                 8.4606                 1.6297
 Frc consts  --      0.0403                 0.0757                 0.0250
 IR Inten    --      4.5630                 0.9570                 3.7407

                     25                     26                     27
                      A                      A                      A
 Frequencies --    168.7285               190.6460               201.6567
 Red. masses --      5.0594                 4.2532                 4.5618
 Frc consts  --      0.0849                 0.0911                 0.1093
 IR Inten    --      8.6516                 3.7224                 1.3872

                     28                     29                     30
                      A                      A                      A
 Frequencies --    288.1574               325.4323               370.9740
 Red. masses --      5.4655                 4.5382                 4.3728
 Frc consts  --      0.2674                 0.2832                 0.3546
 IR Inten    --      2.5074                 3.3510                 1.1413

                     31                     32                     33
                      A                      A                      A
 Frequencies --    431.4973               481.2173               514.5416
 Red. masses --      3.1160                 6.4722                 3.3753
 Frc consts  --      0.3418                 0.8831                 0.5265
 IR Inten    --      9.3657                10.7337                 5.1632

                     34                     35                     36
                      A                      A                      A
 Frequencies --    518.5726               577.1225               638.8684
 Red. masses --      2.2447                 3.1533                 2.9522
 Frc consts  --      0.3557                 0.6188                 0.7099
 IR Inten    --     13.3988                11.2628                 2.5946

                     37                     38                     39
                      A                      A                      A
 Frequencies --    642.1013               661.7007               711.1718
 Red. masses --      8.1362                 3.2284                 4.9744
 Frc consts  --      1.9764                 0.8328                 1.4823
 IR Inten    --      1.7857                 8.6020                 4.8173

                     40                     41                     42
                      A                      A                      A
 Frequencies --    736.2936               799.3820               812.2718
 Red. masses --      4.1161                 5.4761                 4.7959
 Frc consts  --      1.3147                 2.0617                 1.8643
 IR Inten    --     14.2307                 6.1366                 2.0965

                     43                     44                     45
                      A                      A                      A
 Frequencies --    834.5503               842.9221               851.5180
 Red. masses --      4.3726                 5.7285                 4.0950
 Frc consts  --      1.7943                 2.3981                 1.7494
 IR Inten    --      2.9306                46.0802                 3.7951

                     46                     47                     48
                      A                      A                      A
 Frequencies --    874.9234               928.9575               941.0253
 Red. masses --      2.1927                 2.4582                 5.8813
 Frc consts  --      0.9889                 1.2498                 3.0685
 IR Inten    --      0.0616                 1.6032                11.5936

                     49                     50                     51
                      A                      A                      A
 Frequencies --    952.5797               960.2694               965.5630
 Red. masses --      1.0508                 1.5993                 2.2867
 Frc consts  --      0.5618                 0.8689                 1.2561
 IR Inten    --     12.3251                 1.1565                13.7385

                     52                     53                     54
                      A                      A                      A
 Frequencies --    985.0060               995.7387              1006.7768
 Red. masses --      1.4830                 1.2213                 1.0593
 Frc consts  --      0.8478                 0.7135                 0.6326
 IR Inten    --     19.0152                 3.0478                10.5511

                     55                     56                     57
                      A                      A                      A
 Frequencies --   1032.2774              1080.0687              1099.3278
 Red. masses --      3.6491                 4.2644                 8.7125
 Frc consts  --      2.2910                 2.9310                 6.2037
 IR Inten    --     23.3350                15.5953                14.8546

                     58                     59                     60
                      A                      A                      A
 Frequencies --   1113.5380              1166.1789              1170.8639
 Red. masses --      2.5673                 3.6491                 4.5673
 Frc consts  --      1.8756                 2.9239                 3.6891
 IR Inten    --      9.4972                14.7372                 2.3471

                     61                     62                     63
                      A                      A                      A
 Frequencies --   1255.7900              1300.7518              1349.1583
 Red. masses --      4.3320                 4.7416                 2.4804
 Frc consts  --      4.0251                 4.7268                 2.6601
 IR Inten    --     99.4639               125.8433                16.1845

                     64                     65                     66
                      A                      A                      A
 Frequencies --   1395.5832              1718.3555              1789.1366
 Red. masses --      7.8492                 8.8433                 9.9098
 Frc consts  --      9.0071                15.3847                18.6897
 IR Inten    --      6.6112                16.2447                 1.1364

                     67                     68                     69
                      A                      A                      A
 Frequencies --   1891.3740              3992.0171              4328.1652
 Red. masses --     12.8727                 1.0751                 1.0859
 Frc consts  --     27.1315                10.0949                11.9856
 IR Inten    --    386.8023                 9.7723                48.3239

                     70                     71                     72
                      A                      A                      A
 Frequencies --   4405.7299              4417.5987              4426.9494
 Red. masses --      1.0609                 1.0587                 1.0606
 Frc consts  --     12.1329                12.1726                12.2465
 IR Inten    --     40.6863                13.3899                 5.1021

                     73                     74                     75
                      A                      A                      A
 Frequencies --   4459.8497              4526.9034              4538.7996
 Red. masses --      1.0316                 1.1071                 1.1099
 Frc consts  --     12.0889                13.3675                13.4711
 IR Inten    --     17.4907                11.7339                 3.2999

                     76                     77                     78
                      A                      A                      A
 Frequencies --   4549.3250              4656.4781              4682.4471
 Red. masses --      1.1079                 1.1075                 1.1069
 Frc consts  --     13.5102                14.1483                14.2991
 IR Inten    --      4.5825                 1.9703                 0.8210

                     79                     80                     81
                      A                      A                      A
 Frequencies --   5016.9191              5045.7515              5075.9889
 Red. masses --      1.0906                 1.0926                 1.0932
 Frc consts  --     16.1723                16.3899                16.5959
 IR Inten    --      1.4050                 1.1156                 0.9641

 - Thermochemistry -
 -------------------
 Temperature   298.150 Kelvin.  Pressure   1.00000 Atm.
 Atom     1 has atomic number  8 and mass  15.99491

 Molecular mass:   228.06944 amu.
 Principal axes and moments of inertia in atomic units:
                           1         2         3
     Eigenvalues --  1275.473038146.321858702.78300
           X            0.99995  -0.00969   0.00050
           Y            0.00969   0.99988  -0.01206
           Z           -0.00038   0.01206   0.99993
 This molecule is an asymmetric top.
 Rotational symmetry number  1.
 Warning -- assumption of classical behavior for rotation
           may cause significant error
 Rotational temperatures (Kelvin)      0.06791     0.01063     0.00995
 Rotational constants (GHZ):           1.41496     0.22154     0.20738
   21 imaginary frequencies ignored.
 Zero-point vibrational energy     610518.3 (Joules/Mol)
                                  145.91738 (Kcal/Mol)
 Warning -- explicit consideration of  14 degrees of freedom as
           vibrations may cause significant error
 Vibrational temperatures:    130.40   177.25   232.18   242.76   274.30
          (Kelvin)            290.14   414.59   468.22   533.75   620.83
                              692.36   740.31   746.11   830.35   919.19
                              923.84   952.04  1023.22  1059.36  1150.13
                             1168.68  1200.73  1212.78  1225.14  1258.82
                             1336.56  1353.93  1370.55  1381.61  1389.23
                             1417.20  1432.65  1448.53  1485.22  1553.98
                             1581.69  1602.13  1677.87  1684.61  1806.80
                             1871.49  1941.14  2007.93  2472.33  2574.17
                             2721.27  5743.62  6227.26  6338.86  6355.94
                             6369.39  6416.73  6513.20  6530.32  6545.46
                             6699.63  6737.00  7218.23  7259.71  7303.22

 Zero-point correction=                           0.232534 (Hartree/Particle)
 Thermal correction to Energy=                    0.243014
 Thermal correction to Enthalpy=                  0.243958
 Thermal correction to Gibbs Free Energy=         0.195353
 Sum of electronic and zero-point Energies=          -1066.160886
 Sum of electronic and thermal Energies=             -1066.150406
 Sum of electronic and thermal Enthalpies=           -1066.149462
 Sum of electronic and thermal Free Energies=        -1066.198067

                     E (Thermal)             CV                S
                      KCal/Mol        Cal/Mol-Kelvin    Cal/Mol-Kelvin
 Total                  152.494             41.893            102.298
 Electronic               0.000              0.000              0.000
 Translational            0.889              2.981             42.176
 Rotational               0.889              2.981             32.869
 Vibrational            150.716             35.931             27.253
 Vibration     1          0.602              1.956              3.646
 Vibration     2          0.610              1.930              3.050
 Vibration     3          0.622              1.890              2.534
 Vibration     4          0.625              1.881              2.450
 Vibration     5          0.634              1.853              2.222
 Vibration     6          0.639              1.838              2.118
 Vibration     7          0.685              1.696              1.485
 Vibration     8          0.710              1.625              1.283
 Vibration     9          0.743              1.532              1.076
 Vibration    10          0.793              1.402              0.854
 Vibration    11          0.838              1.292              0.707
 Vibration    12          0.870              1.218              0.623
 Vibration    13          0.874              1.209              0.613
 Vibration    14          0.934              1.081              0.491

 Normal termination of Gaussian 16 at Mon Mar  6 10:51:13 2023.
