 Gaussian 16, Revision C.01,
 Gaussian 16:  ES64L-G16RevC.01  3-Jul-2019

 ----------------------------------------------------------------------
 #p pop=(regular,nbo,savenbos) freq=noraman def2svp empiricaldispersion
 =gd3bj output=wfx pbe1pbe
 ----------------------------------------------------------------------

 ----------------------------------------
 QUWBOC_Complex_5_Ligand_1_NN_Cu_oriented
 ----------------------------------------
 Symbolic Z-matrix:
 Charge = -1 Multiplicity = 1

                         Standard orientation:
 ---------------------------------------------------------------------
 Center     Atomic      Atomic             Coordinates (Angstroms)
 Number     Number       Type             X           Y           Z
 ---------------------------------------------------------------------
      1         16           0       -0.449021    2.380350   -0.236389
      2         17           0       -4.114442   -2.683514   -0.208480
      3          8           0       -0.650008    3.047459   -1.497565
      4          8           0       -0.765178    3.115176    0.954148
      5          7           0        2.705558    0.100786   -1.315507
      6          7           0        1.064021    1.836666   -0.268834
      7          6           0        2.357376   -0.128040   -0.008536
      8          6           0       -1.467225    0.927511   -0.223674
      9          6           0        1.458196    0.799052    0.592778
     10          6           0        3.505842   -0.755771   -1.922997
     11          1           0        3.740508   -0.598508   -2.809389
     12          6           0       -2.426556    0.782859    0.764010
     13          1           0       -2.511671    1.429199    1.427256
     14          6           0       -1.322699   -0.032711   -1.221757
     15          1           0       -0.668571    0.067678   -1.875135
     16          6           0       -2.158521   -1.139237   -1.236991
     17          1           0       -2.086477   -1.780249   -1.906982
     18          6           0       -3.258450   -0.322511    0.765141
     19          1           0       -3.908309   -0.428451    1.421963
     20          6           0        1.050678    0.583037    1.890647
     21          1           0        0.465377    1.178530    2.300344
     22          6           0       -3.100848   -1.267489   -0.234602
     23          6           0        2.830167   -1.248498    0.703472
     24          6           0        3.688772   -2.139693    0.023960
     25          1           0        4.028643   -2.886614    0.461336
     26          6           0        4.017240   -1.898485   -1.280075
     27          1           0        4.574341   -2.484608   -1.739166
     28          6           0        2.386613   -1.440916    2.035915
     29          1           0        2.682763   -2.174878    2.524318
     30          6           0        1.524124   -0.547026    2.600150
     31          1           0        1.239430   -0.683691    3.474919
 ---------------------------------------------------------------------

 SCF Done:  E(RPBE1PBE) =  -1693.62777360     A.U. after   16 cycles

 The electronic state is 1-A.
 Alpha  occ. eigenvalues -- -101.58996 -89.05326 -19.02474 -19.01698 -14.25999
 Alpha  occ. eigenvalues --  -14.19025 -10.19572 -10.13578 -10.13488 -10.13456
 Alpha  occ. eigenvalues --  -10.13333 -10.13310 -10.13222 -10.12793 -10.12637
 Alpha  occ. eigenvalues --  -10.12563 -10.12401 -10.11558 -10.10256 -10.09170
 Alpha  occ. eigenvalues --  -10.07938  -9.44224  -8.02138  -7.18326  -7.17388
 Alpha  occ. eigenvalues --   -7.17367  -5.96321  -5.96276  -5.96194  -0.97629
 Alpha  occ. eigenvalues --   -0.85150  -0.84025  -0.82304  -0.76761  -0.76005
 Alpha  occ. eigenvalues --   -0.73518  -0.70291  -0.69220  -0.66157  -0.65763
 Alpha  occ. eigenvalues --   -0.62269  -0.56105  -0.55996  -0.54383  -0.53882
 Alpha  occ. eigenvalues --   -0.51394  -0.48661  -0.45540  -0.44219  -0.42081
 Alpha  occ. eigenvalues --   -0.41765  -0.39421  -0.39399  -0.37341  -0.36971
 Alpha  occ. eigenvalues --   -0.36214  -0.34246  -0.33035  -0.32829  -0.32090
 Alpha  occ. eigenvalues --   -0.31851  -0.30992  -0.30239  -0.29825  -0.28730
 Alpha  occ. eigenvalues --   -0.27735  -0.25693  -0.25115  -0.23862  -0.23388
 Alpha  occ. eigenvalues --   -0.21144  -0.19552  -0.18157  -0.17823  -0.17699
 Alpha  occ. eigenvalues --   -0.15428  -0.15005  -0.14614  -0.14255  -0.13509
 Alpha  occ. eigenvalues --   -0.09128  -0.05923
 Alpha virt. eigenvalues --    0.07145   0.08249   0.08912   0.10677   0.15346
 Alpha virt. eigenvalues --    0.15751   0.19567   0.21353   0.21570   0.22355
 Alpha virt. eigenvalues --    0.22946   0.23281   0.23823   0.25619   0.26770

 Mulliken charges:
               1
     1  S    0.873723
     2  Cl  -0.150275
     3  O   -0.514711
     4  O   -0.512835
     5  N   -0.126888
     6  N   -0.430013
     7  C   -0.022957
     8  C   -0.109508
     9  C    0.120630
    10  C    0.163786
    11  H   -0.099691
    12  C    0.124953
    13  H   -0.107331
    14  C    0.171773
    15  H   -0.095000
    16  C    0.112981
    17  H   -0.121044
    18  C    0.121539
    19  H   -0.125728
    20  C    0.005311
    21  H   -0.146772
    22  C    0.034471
    23  C    0.028138
    24  C    0.133362
    25  H   -0.134173
    26  C    0.028305
    27  H   -0.117391
    28  C    0.036450
    29  H   -0.154921
    30  C    0.135330
    31  H   -0.121515
 Sum of Mulliken charges =  -1.00000

 Dipole moment (field-independent basis, Debye):
    X=             -1.0936    Y=             -8.6621    Z=              1.4437  Tot=              8.8494
 Quadrupole moment (field-independent basis, Debye-Ang):
   XX=           -153.5291   YY=           -169.8565   ZZ=           -139.0019
   XY=             -6.3008   XZ=             -3.5887   YZ=              6.6544

  Exact polarizability:     208.766     -19.349     194.759     -26.227      -0.191     183.920
 Approx polarizability:     284.635     -34.125     339.009     -64.607      -9.769     348.443

 Summary of Natural Population Analysis:

                                       Natural Population
                Natural  -----------------------------------------------
    Atom  No    Charge         Core      Valence    Rydberg      Total
 -----------------------------------------------------------------------
      S    1    2.30167      9.99799     3.46295    0.23739    13.69833
     Cl    2   -0.05435      9.99959     7.03895    0.01582    17.05435
      O    3   -0.96730      1.99977     6.95887    0.00866     8.96730
      O    4   -1.00751      1.99976     6.99952    0.00823     9.00751
      N    5   -0.43089      1.99933     5.41430    0.01726     7.43089
      N    6   -0.93402      1.99930     5.91924    0.01547     7.93402
      C    7    0.16907      1.99877     3.80671    0.02545     5.83093
      C    8   -0.28308      1.99887     4.25545    0.02876     6.28308
      C    9    0.19176      1.99890     3.78199    0.02735     5.80824
      C   10    0.08547      1.99914     3.89317    0.02222     5.91453
      H   11    0.13886      0.00000     0.85796    0.00319     0.86114
      C   12   -0.14140      1.99896     4.12439    0.01805     6.14140
      H   13    0.19243      0.00000     0.80335    0.00422     0.80757
      C   14   -0.11595      1.99898     4.09880    0.01817     6.11595
      H   15    0.19203      0.00000     0.80296    0.00500     0.80797
      C   16   -0.19829      1.99891     4.18301    0.01636     6.19829
      H   17    0.18117      0.00000     0.81530    0.00354     0.81883
      C   18   -0.19769      1.99892     4.18234    0.01644     6.19769
      H   19    0.17917      0.00000     0.81724    0.00359     0.82083
      C   20   -0.26014      1.99896     4.24321    0.01797     6.26014
      H   21    0.18375      0.00000     0.81148    0.00477     0.81625
      C   22   -0.02241      1.99878     4.00064    0.02299     6.02241
      C   23   -0.08166      1.99896     4.06735    0.01535     6.08166
      C   24   -0.14137      1.99905     4.12668    0.01565     6.14137
      H   25    0.16225      0.00000     0.83444    0.00331     0.83775
      C   26   -0.23217      1.99911     4.21925    0.01380     6.23217
      H   27    0.16023      0.00000     0.83628    0.00349     0.83977
      C   28   -0.24419      1.99905     4.22809    0.01705     6.24419
      H   29    0.16090      0.00000     0.83560    0.00350     0.83910
      C   30   -0.14448      1.99911     4.13104    0.01433     6.14448
      H   31    0.15814      0.00000     0.83862    0.00324     0.84186
 =======================================================================
   * Total *   -1.00000     57.98021   105.38920    0.63059   164.00000

 ******   21 imaginary frequencies (negative Signs) ******

                      1                      2                      3
                      A                      A                      A
 Frequencies --  -1458.5065             -1443.2699             -1424.1755
 Red. masses --      1.0734                 1.0728                 1.0684
 Frc consts  --      1.3453                 1.3166                 1.2768
 IR Inten    --     12.3366                69.8374                46.4654

                      4                      5                      6
                      A                      A                      A
 Frequencies --  -1387.6237             -1351.6236             -1339.8353
 Red. masses --      1.0518                 1.0445                 1.0357
 Frc consts  --      1.1933                 1.1243                 1.0955
 IR Inten    --      0.1954                 4.0632                 0.4047

                      7                      8                      9
                      A                      A                      A
 Frequencies --  -1252.0354             -1239.9863             -1235.2178
 Red. masses --      1.0249                 1.0334                 1.0415
 Frc consts  --      0.9466                 0.9362                 0.9362
 IR Inten    --      0.2265                 0.0277                 0.3135

                     10                     11                     12
                      A                      A                      A
 Frequencies --  -1228.9417              -959.4664              -949.4513
 Red. masses --      1.0350                 1.1002                 1.0844
 Frc consts  --      0.9210                 0.5967                 0.5760
 IR Inten    --      2.6161                 0.9290                 0.7877

                     13                     14                     15
                      A                      A                      A
 Frequencies --   -931.4894              -929.1000              -850.0406
 Red. masses --      1.0546                 1.1191                 1.1046
 Frc consts  --      0.5391                 0.5692                 0.4703
 IR Inten    --     19.5624                 4.5597                 3.8196

                     16                     17                     18
                      A                      A                      A
 Frequencies --   -847.8671              -830.8958              -764.5429
 Red. masses --      1.0982                 1.0987                 1.0640
 Frc consts  --      0.4652                 0.4469                 0.3664
 IR Inten    --      6.0226                 8.5451                 4.9863

                     19                     20                     21
                      A                      A                      A
 Frequencies --   -755.0811              -710.9200               -19.4286
 Red. masses --      1.0344                 1.1210                11.3231
 Frc consts  --      0.3475                 0.3338                 0.0025
 IR Inten    --     12.8029                 5.7021                 2.9707

                     22                     23                     24
                      A                      A                      A
 Frequencies --     30.8786                75.8264               131.4068
 Red. masses --     11.4289                 9.0340                 9.9429
 Frc consts  --      0.0064                 0.0306                 0.1012
 IR Inten    --      0.9246                 1.7640                 0.3890

                     25                     26                     27
                      A                      A                      A
 Frequencies --    139.1200               169.6915               191.2953
 Red. masses --     14.6987                11.0199                 8.8488
 Frc consts  --      0.1676                 0.1870                 0.1908
 IR Inten    --      1.6058                 0.1693                 0.3767

                     28                     29                     30
                      A                      A                      A
 Frequencies --    216.0162               251.9668               259.9553
 Red. masses --     11.5236                13.1928                 9.5376
 Frc consts  --      0.3168                 0.4935                 0.3797
 IR Inten    --      1.0341                 2.2399                 1.9729

                     31                     32                     33
                      A                      A                      A
 Frequencies --    287.5191               299.8116               351.7672
 Red. masses --     10.2222                13.6590                10.3569
 Frc consts  --      0.4979                 0.7234                 0.7551
 IR Inten    --      1.5115                 3.4699                 0.2295

                     34                     35                     36
                      A                      A                      A
 Frequencies --    385.1726               406.0195               501.7541
 Red. masses --     10.4572                11.8830                13.3518
 Frc consts  --      0.9141                 1.1542                 1.9805
 IR Inten    --      0.1270                16.5550                52.7451

                     37                     38                     39
                      A                      A                      A
 Frequencies --    511.6834               534.8458               535.5437
 Red. masses --     14.1237                10.4503                10.5567
 Frc consts  --      2.1787                 1.7613                 1.7839
 IR Inten    --     73.9704                 2.6711                 4.9056

                     40                     41                     42
                      A                      A                      A
 Frequencies --    548.6348               571.7407               594.9175
 Red. masses --      8.3350                 8.5357                10.6614
 Frc consts  --      1.4782                 1.6439                 2.2232
 IR Inten    --      5.1468                 9.4234                 4.0136

                     43                     44                     45
                      A                      A                      A
 Frequencies --    612.4516               629.6475               634.4286
 Red. masses --     10.9294                 5.9102                 9.4537
 Frc consts  --      2.4154                 1.3805                 2.2419
 IR Inten    --     46.3686                 1.3848                31.1614

                     46                     47                     48
                      A                      A                      A
 Frequencies --    661.3017               681.1457               711.2809
 Red. masses --      9.7691                 9.3308                 5.0299
 Frc consts  --      2.5171                 2.5506                 1.4993
 IR Inten    --     99.6017                14.1558                 0.8512

                     49                     50                     51
                      A                      A                      A
 Frequencies --    722.2411               750.3516               782.8022
 Red. masses --      7.8252                 8.5734                 8.7263
 Frc consts  --      2.4050                 2.8440                 3.1505
 IR Inten    --      2.8521                 5.8086                21.2579

                     52                     53                     54
                      A                      A                      A
 Frequencies --    788.3058               860.5680               882.7736
 Red. masses --      9.3783                 5.2025                10.2180
 Frc consts  --      3.4337                 2.2700                 4.6915
 IR Inten    --     18.5483                37.3282                20.3960

                     55                     56                     57
                      A                      A                      A
 Frequencies --    890.0551               898.2154               976.7850
 Red. masses --      8.0976                 6.6290                 8.4022
 Frc consts  --      3.7795                 3.1511                 4.7233
 IR Inten    --     79.2151                62.6585                75.0230

                     58                     59                     60
                      A                      A                      A
 Frequencies --   1071.5188              1150.2861              1164.8518
 Red. masses --      7.8986                 8.0658                 8.6888
 Frc consts  --      5.3432                 6.2880                 6.9463
 IR Inten    --     29.5519               100.5488                47.3947

                     61                     62                     63
                      A                      A                      A
 Frequencies --   1204.1071              1262.1369              1297.8436
 Red. masses --      9.8796                17.2152                 8.5342
 Frc consts  --      8.4396                16.1575                 8.4695
 IR Inten    --    338.0524               549.7326                 7.7976

                     64                     65                     66
                      A                      A                      A
 Frequencies --   1330.2367              1367.3337              1378.4743
 Red. masses --     10.0384                 9.2964                 8.9316
 Frc consts  --     10.4658                10.2403                 9.9995
 IR Inten    --     49.3842                22.5968                 1.4571

                     67                     68                     69
                      A                      A                      A
 Frequencies --   1391.6825              1434.3581              1439.0551
 Red. masses --     10.1486                 9.2459                10.9838
 Frc consts  --     11.5807                11.2077                13.4016
 IR Inten    --     23.3689                53.9100               224.1285

                     70                     71                     72
                      A                      A                      A
 Frequencies --   1453.3864              1505.3946              1509.5426
 Red. masses --     16.4204                 9.2566                10.1068
 Frc consts  --     20.4360                12.3595                13.5692
 IR Inten    --    163.0347               116.4698                42.3865

                     73                     74                     75
                      A                      A                      A
 Frequencies --   1621.9512              1624.2139              1653.1529
 Red. masses --     10.7672                10.7536                10.4822
 Frc consts  --     16.6890                16.7144                16.8783
 IR Inten    --     28.1859                34.2928                28.9286

                     76                     77                     78
                      A                      A                      A
 Frequencies --   1682.4290              1682.9876              5020.8217
 Red. masses --     10.8472                10.2895                 1.0868
 Frc consts  --     18.0902                17.1714                16.1411
 IR Inten    --      2.8631                 5.8083                 0.6319

                     79                     80                     81
                      A                      A                      A
 Frequencies --   5022.3057              5028.9338              5031.9212
 Red. masses --      1.0872                 1.0887                 1.0892
 Frc consts  --     16.1569                16.2229                16.2490
 IR Inten    --      1.1605                 5.6935                 6.7354

                     82                     83                     84
                      A                      A                      A
 Frequencies --   5033.8814              5035.6171              5039.2435
 Red. masses --      1.0882                 1.0883                 1.0912
 Frc consts  --     16.2465                16.2592                16.3256
 IR Inten    --      1.0911                 0.6232                 2.3191

                     85                     86                     87
                      A                      A                      A
 Frequencies --   5039.5318              5044.6487              5046.4647
 Red. masses --      1.0917                 1.0907                 1.0911
 Frc consts  --     16.3352                16.3545                16.3723
 IR Inten    --      8.0131                 4.5706                 4.5814

 - Thermochemistry -
 -------------------
 Temperature   298.150 Kelvin.  Pressure   1.00000 Atm.
 Atom     1 has atomic number 16 and mass  31.97207

 Molecular mass:   317.01515 amu.
 Principal axes and moments of inertia in atomic units:
                           1         2         3
     Eigenvalues --  5186.345468801.11702**********
           X            0.99919  -0.03983  -0.00573
           Y            0.03986   0.99919   0.00627
           Z            0.00548  -0.00649   0.99996
 This molecule is an asymmetric top.
 Rotational symmetry number  1.
 Warning -- assumption of classical behavior for rotation
           may cause significant error
 Rotational temperatures (Kelvin)      0.01670     0.00984     0.00791
 Rotational constants (GHZ):           0.34798     0.20506     0.16477
   21 imaginary frequencies ignored.
 Zero-point vibrational energy     580465.4 (Joules/Mol)
                                  138.73456 (Kcal/Mol)
 Warning -- explicit consideration of  22 degrees of freedom as
           vibrations may cause significant error
 Vibrational temperatures:     44.43   109.10   189.07   200.16   244.15
          (Kelvin)            275.23   310.80   362.52   374.02   413.68
                              431.36   506.11   554.18   584.17   721.91
                              736.20   769.52   770.53   789.36   822.61
                              855.95   881.18   905.92   912.80   951.47
                              980.02  1023.37  1039.14  1079.59  1126.28
                             1134.20  1238.17  1270.11  1280.59  1292.33
                             1405.38  1541.68  1655.01  1675.96  1732.44
                             1815.93  1867.31  1913.91  1967.29  1983.32
                             2002.32  2063.72  2070.48  2091.10  2165.93
                             2171.90  2333.63  2336.88  2378.52  2420.64
                             2421.44  7223.84  7225.98  7235.51  7239.81
                             7242.63  7245.13  7250.35  7250.76  7258.12
                             7260.74

 Zero-point correction=                           0.221088 (Hartree/Particle)
 Thermal correction to Energy=                    0.234419
 Thermal correction to Enthalpy=                  0.235363
 Thermal correction to Gibbs Free Energy=         0.179511
 Sum of electronic and zero-point Energies=          -1693.406686
 Sum of electronic and thermal Energies=             -1693.393355
 Sum of electronic and thermal Enthalpies=           -1693.392411
 Sum of electronic and thermal Free Energies=        -1693.448263

                     E (Thermal)             CV                S
                      KCal/Mol        Cal/Mol-Kelvin    Cal/Mol-Kelvin
 Total                  147.100             52.087            117.551
 Electronic               0.000              0.000              0.000
 Translational            0.889              2.981             43.157
 Rotational               0.889              2.981             34.568
 Vibrational            145.323             46.125             39.825
 Vibration     1          0.594              1.984              5.772
 Vibration     2          0.599              1.965              3.996
 Vibration     3          0.612              1.922              2.925
 Vibration     4          0.615              1.914              2.816
 Vibration     5          0.625              1.880              2.439
 Vibration     6          0.634              1.852              2.215
 Vibration     7          0.645              1.817              1.992
 Vibration     8          0.664              1.759              1.717
 Vibration     9          0.668              1.746              1.662
 Vibration    10          0.685              1.697              1.489
 Vibration    11          0.692              1.674              1.418
 Vibration    12          0.728              1.572              1.158
 Vibration    13          0.754              1.502              1.019
 Vibration    14          0.771              1.457              0.941
 Vibration    15          0.857              1.246              0.654
 Vibration    16          0.867              1.224              0.630
 Vibration    17          0.890              1.173              0.576
 Vibration    18          0.891              1.171              0.575
 Vibration    19          0.904              1.143              0.547
 Vibration    20          0.928              1.092              0.501
 Vibration    21          0.953              1.043              0.458
 Vibration    22          0.972              1.005              0.429

 Normal termination of Gaussian 16 at Mon Mar  6 11:22:11 2023.
