 Gaussian 16, Revision C.01,
 Gaussian 16:  ES64L-G16RevC.01  3-Jul-2019

 ----------------------------------------------------------------------
 #p pop=(regular,nbo,savenbos) freq=noraman def2svp empiricaldispersion
 =gd3bj output=wfx pbe1pbe
 ----------------------------------------------------------------------

 ----------------------------------------
 QUXKUQ_Complex_4_Ligand_0_OO_Cu_oriented
 ----------------------------------------
 Symbolic Z-matrix:
 Charge = -1 Multiplicity = 1

                         Standard orientation:
 ---------------------------------------------------------------------
 Center     Atomic      Atomic             Coordinates (Angstroms)
 Number     Number       Type             X           Y           Z
 ---------------------------------------------------------------------
      1          8           0        2.771899   -0.398488   -0.633859
      2          8           0        0.365781   -1.355608   -0.973170
      3          8           0        2.212013    0.789897    1.177301
      4          8           0       -0.254217    1.462792   -0.847348
      5          1           0        0.078215    2.160107   -0.571860
      6          6           0        1.950152   -0.014724    0.262625
      7          6           0        0.531060   -0.573696    0.217322
      8          1           0        0.383127   -1.143066    1.000836
      9          6           0       -0.469270    0.581297    0.238748
     10          1           0       -0.352863    1.080730    1.073663
     11          1           0        0.057480   -2.014816   -0.877669
     12          8           0       -2.761276    0.599471   -0.503721
     13          8           0       -2.086932   -0.984104    0.934053
     14          1           0       -2.816131   -1.317643    0.762816
     15          6           0       -1.899937    0.060958    0.178999
 ---------------------------------------------------------------------

 SCF Done:  E(RPBE1PBE) =  -605.555727084     A.U. after   15 cycles

 The electronic state is 1-A.
 Alpha  occ. eigenvalues --  -19.15265 -19.07875 -19.05240 -19.02176 -18.93693
 Alpha  occ. eigenvalues --  -18.92327 -10.24192 -10.13951 -10.10589 -10.10044
 Alpha  occ. eigenvalues --   -1.06270  -0.94016  -0.92862  -0.91311  -0.82239
 Alpha  occ. eigenvalues --   -0.72310  -0.67296  -0.58883  -0.52921  -0.44261
 Alpha  occ. eigenvalues --   -0.40692  -0.38941  -0.38634  -0.36659  -0.33286
 Alpha  occ. eigenvalues --   -0.31398  -0.29594  -0.24071  -0.22758  -0.22255
 Alpha  occ. eigenvalues --   -0.20342  -0.19048  -0.17636  -0.17136  -0.16814
 Alpha  occ. eigenvalues --   -0.13344  -0.04478  -0.04146  -0.02135
 Alpha virt. eigenvalues --    0.13464   0.18533   0.22673   0.25351   0.27350
 Alpha virt. eigenvalues --    0.28323   0.30339   0.34684   0.35956   0.39238
 Alpha virt. eigenvalues --    0.41393   0.45212   0.48548   0.54211   0.55497

 Mulliken charges:
               1
     1  O   -0.436145
     2  O   -0.183354
     3  O   -0.448586
     4  O   -0.228831
     5  H    0.081357
     6  C    0.099384
     7  C    0.164951
     8  H   -0.045473
     9  C    0.161511
    10  H   -0.019004
    11  H   -0.007220
    12  O   -0.273504
    13  O   -0.061764
    14  H    0.074166
    15  C    0.122512
 Sum of Mulliken charges =  -1.00000

 Dipole moment (field-independent basis, Debye):
    X=             -9.4556    Y=             -2.3633    Z=              2.4559  Tot=             10.0511
 Quadrupole moment (field-independent basis, Debye-Ang):
   XX=            -92.3622   YY=            -52.3505   ZZ=            -66.1877
   XY=              5.8774   XZ=             -5.0903   YZ=             -2.2228

  Exact polarizability:      66.089      -0.370      50.792      -0.908       0.754      48.604
 Approx polarizability:      82.426      -4.423      73.416      -1.432       3.034      79.594

 Summary of Natural Population Analysis:

                                       Natural Population
                Natural  -----------------------------------------------
    Atom  No    Charge         Core      Valence    Rydberg      Total
 -----------------------------------------------------------------------
      O    1   -0.76557      1.99976     6.75702    0.00879     8.76557
      O    2   -0.67533      1.99951     6.64782    0.02799     8.67533
      O    3   -0.80753      1.99975     6.79797    0.00981     8.80753
      O    4   -0.69672      1.99968     6.67775    0.01928     8.69672
      H    5    0.42373      0.00000     0.56899    0.00729     0.57627
      C    6    0.76629      1.99944     3.16006    0.07421     5.23371
      C    7    0.01693      1.99879     3.95443    0.02985     5.98307
      H    8    0.16250      0.00000     0.83237    0.00513     0.83750
      C    9    0.03668      1.99879     3.93508    0.02945     5.96332
      H   10    0.18873      0.00000     0.80192    0.00935     0.81127
      H   11    0.37262      0.00000     0.61984    0.00753     0.62738
      O   12   -0.63305      1.99973     6.62273    0.01058     8.63305
      O   13   -0.65879      1.99960     6.64255    0.01664     8.65879
      H   14    0.43351      0.00000     0.55635    0.01014     0.56649
      C   15    0.83598      1.99943     3.10246    0.06212     5.16402
 =======================================================================
   * Total *   -1.00000     19.99448    57.67734    0.32818    78.00000

 ******   10 imaginary frequencies (negative Signs) ******

                      1                      2                      3
                      A                      A                      A
 Frequencies --  -3378.3948             -3037.3549             -2113.8648
 Red. masses --      1.0729                 1.0779                 1.0709
 Frc consts  --      7.2152                 5.8589                 2.8194
 IR Inten    --    139.9002                86.0130               132.0981

                      4                      5                      6
                      A                      A                      A
 Frequencies --  -2020.1321             -1641.9645             -1580.2743
 Red. masses --      1.0722                 1.0804                 1.1044
 Frc consts  --      2.5781                 1.7162                 1.6249
 IR Inten    --    108.7587               181.0156                80.8711

                      7                      8                      9
                      A                      A                      A
 Frequencies --   -547.7087              -435.7390              -283.9142
 Red. masses --      1.2542                 1.3078                 2.5229
 Frc consts  --      0.2217                 0.1463                 0.1198
 IR Inten    --     15.4963                 5.0437                 2.6515

                     10                     11                     12
                      A                      A                      A
 Frequencies --   -205.9642                52.8005               168.7165
 Red. masses --      3.8498                12.1774                 8.9422
 Frc consts  --      0.0962                 0.0200                 0.1500
 IR Inten    --      2.6185                 0.7839                 7.1439

                     13                     14                     15
                      A                      A                      A
 Frequencies --    202.6862               254.3271               366.8482
 Red. masses --      8.4680                 9.2984                 9.3293
 Frc consts  --      0.2050                 0.3544                 0.7397
 IR Inten    --      7.5631                13.3453                 8.1157

                     16                     17                     18
                      A                      A                      A
 Frequencies --    406.0641               504.0417               527.9320
 Red. masses --      8.1736                 5.9380                 4.7523
 Frc consts  --      0.7941                 0.8888                 0.7804
 IR Inten    --      1.3669                 5.8654                 5.5359

                     19                     20                     21
                      A                      A                      A
 Frequencies --    633.1309               696.1548               765.1314
 Red. masses --      2.9572                 5.5371                 2.3396
 Frc consts  --      0.6984                 1.5810                 0.8070
 IR Inten    --      6.8791                75.7475                 4.7593

                     22                     23                     24
                      A                      A                      A
 Frequencies --    816.4666               840.3606               877.3064
 Red. masses --      4.3256                 6.2456                 2.5531
 Frc consts  --      1.6989                 2.5987                 1.1577
 IR Inten    --     27.6363                 2.3705                 7.3593

                     25                     26                     27
                      A                      A                      A
 Frequencies --    930.3613               997.3306              1018.3565
 Red. masses --      8.3768                 6.2132                 4.1592
 Frc consts  --      4.2720                 3.6412                 2.5413
 IR Inten    --      1.8713                 5.5276                 4.3735

                     28                     29                     30
                      A                      A                      A
 Frequencies --   1102.9563              1135.1759              1204.0073
 Red. masses --      8.8248                10.9477                 7.8145
 Frc consts  --      6.3252                 8.3119                 6.6743
 IR Inten    --     58.4044                12.0877                56.4874

                     31                     32                     33
                      A                      A                      A
 Frequencies --   1428.4788              1499.5532              1729.3136
 Red. masses --     12.7056                 9.3457                12.8531
 Frc consts  --     15.2755                12.3818                22.6467
 IR Inten    --    274.7900               142.8948               425.0344

                     34                     35                     36
                      A                      A                      A
 Frequencies --   1793.9394              4372.4934              4378.0219
 Red. masses --     12.8920                 1.0862                 1.0865
 Frc consts  --     24.4447                12.2350                12.2693
 IR Inten    --    350.6609                 8.3421                14.3682

                     37                     38                     39
                      A                      A                      A
 Frequencies --   6308.4200              6312.7791              8416.0516
 Red. masses --      1.0663                 1.0674                 1.0675
 Frc consts  --     25.0015                25.0611                44.5476
 IR Inten    --     96.5366                84.9526                68.4338

 - Thermochemistry -
 -------------------
 Temperature   298.150 Kelvin.  Pressure   1.00000 Atm.
 Atom     1 has atomic number  8 and mass  15.99491

 Molecular mass:   149.00861 amu.
 Principal axes and moments of inertia in atomic units:
                           1         2         3
     Eigenvalues --   706.988192066.694032205.61341
           X            0.99996   0.00766  -0.00544
           Y           -0.00773   0.99989  -0.01231
           Z            0.00534   0.01235   0.99991
 This molecule is an asymmetric top.
 Rotational symmetry number  1.
 Warning -- assumption of classical behavior for rotation
           may cause significant error
 Rotational temperatures (Kelvin)      0.12251     0.04191     0.03927
 Rotational constants (GHZ):           2.55272     0.87325     0.81825
   10 imaginary frequencies ignored.
 Zero-point vibrational energy     297506.5 (Joules/Mol)
                                   71.10576 (Kcal/Mol)
 Warning -- explicit consideration of   8 degrees of freedom as
           vibrations may cause significant error
 Vibrational temperatures:     75.97   242.75   291.62   365.92   527.81
          (Kelvin)            584.24   725.20   759.58   910.93  1001.61
                             1100.85  1174.71  1209.09  1262.25  1338.58
                             1434.94  1465.19  1586.91  1633.26  1732.30
                             2055.26  2157.52  2488.10  2581.08  6291.04
                             6299.00  9076.41  9082.68 12108.82

 Zero-point correction=                           0.113314 (Hartree/Particle)
 Thermal correction to Energy=                    0.120439
 Thermal correction to Enthalpy=                  0.121384
 Thermal correction to Gibbs Free Energy=         0.080204
 Sum of electronic and zero-point Energies=           -605.442413
 Sum of electronic and thermal Energies=              -605.435288
 Sum of electronic and thermal Enthalpies=            -605.434343
 Sum of electronic and thermal Free Energies=         -605.475523

                     E (Thermal)             CV                S
                      KCal/Mol        Cal/Mol-Kelvin    Cal/Mol-Kelvin
 Total                   75.577             25.247             86.670
 Electronic               0.000              0.000              0.000
 Translational            0.889              2.981             40.907
 Rotational               0.889              2.981             29.556
 Vibrational             73.799             19.285             16.207
 Vibration     1          0.596              1.976              4.710
 Vibration     2          0.625              1.881              2.450
 Vibration     3          0.639              1.836              2.109
 Vibration     4          0.665              1.755              1.700
 Vibration     5          0.740              1.540              1.093
 Vibration     6          0.771              1.457              0.941
 Vibration     7          0.859              1.241              0.648
 Vibration     8          0.883              1.188              0.592

 Normal termination of Gaussian 16 at Mon Mar  6 10:28:56 2023.
