 Gaussian 16, Revision C.01,
 Gaussian 16:  ES64L-G16RevC.01  3-Jul-2019

 ----------------------------------------------------------------------
 #p pop=(regular,nbo,savenbos) freq=noraman def2svp empiricaldispersion
 =gd3bj output=wfx pbe1pbe
 ----------------------------------------------------------------------

 ----------------------------------------
 RAFXEC_Complex_1_Ligand_2_SS_Cu_oriented
 ----------------------------------------
 Symbolic Z-matrix:
 Charge = -1 Multiplicity = 1

                         Standard orientation:
 ---------------------------------------------------------------------
 Center     Atomic      Atomic             Coordinates (Angstroms)
 Number     Number       Type             X           Y           Z
 ---------------------------------------------------------------------
      1         16           0        2.409525   -1.209562    0.116813
      2         16           0        1.504317    1.507104   -0.458911
      3          8           0       -0.060378   -0.598006   -0.020290
      4          6           0       -1.313453    0.717730    1.558386
      5          1           0       -0.619362    1.351094    1.753673
      6          1           0       -1.221361   -0.046037    2.134081
      7          1           0       -2.169217    1.125874    1.704229
      8          6           0       -1.198704    0.259413    0.057813
      9          6           0        1.187684   -0.102116   -0.107142
     10          6           0       -3.255210   -0.279451   -0.813776
     11          1           0       -3.936040   -0.950703   -0.880873
     12          1           0       -2.912737   -0.082430   -1.693162
     13          1           0       -3.620756    0.517281   -0.430176
     14          6           0       -2.371648   -0.678165   -0.128725
     15          1           0       -2.733913   -0.890410    0.742719
     16          1           0       -1.179744    1.001098   -0.580834
     17          1           0       -2.037323   -1.506859   -0.513103
 ---------------------------------------------------------------------

 SCF Done:  E(RPBE1PBE) =  -1066.31185341     A.U. after   14 cycles

 The electronic state is 1-A.
 Alpha  occ. eigenvalues --  -88.75388 -88.74273 -19.07854 -10.15195 -10.13133
 Alpha  occ. eigenvalues --  -10.05637 -10.05567 -10.05008  -7.75611  -7.74588
 Alpha  occ. eigenvalues --   -5.69856  -5.69340  -5.68998  -5.68833  -5.68352
 Alpha  occ. eigenvalues --   -5.67926  -0.92885  -0.78548  -0.66259  -0.60717
 Alpha  occ. eigenvalues --   -0.54658  -0.51478  -0.48714  -0.44004  -0.42211
 Alpha  occ. eigenvalues --   -0.38717  -0.33349  -0.32845  -0.29416  -0.28820
 Alpha  occ. eigenvalues --   -0.26600  -0.24272  -0.22456  -0.20679  -0.18723
 Alpha  occ. eigenvalues --   -0.14662  -0.09286  -0.05560  -0.02499  -0.00185
 Alpha virt. eigenvalues --    0.17112   0.18381   0.22244   0.23073   0.25910
 Alpha virt. eigenvalues --    0.26278   0.28644   0.29587   0.30525   0.31504
 Alpha virt. eigenvalues --    0.32477   0.34228   0.36546   0.37486   0.38434

 Mulliken charges:
               1
     1  S   -0.440311
     2  S   -0.445311
     3  O   -0.304230
     4  C    0.224307
     5  H   -0.036866
     6  H   -0.029799
     7  H   -0.058328
     8  C    0.054112
     9  C    0.034360
    10  C    0.252136
    11  H   -0.065990
    12  H   -0.043074
    13  H   -0.071821
    14  C    0.114797
    15  H   -0.082808
    16  H   -0.057036
    17  H   -0.044139
 Sum of Mulliken charges =  -1.00000

 Dipole moment (field-independent basis, Debye):
    X=             -9.1196    Y=              0.0028    Z=              0.7167  Tot=              9.1477
 Quadrupole moment (field-independent basis, Debye-Ang):
   XX=            -87.5941   YY=            -77.0478   ZZ=            -66.8332
   XY=              2.0067   XZ=              0.5078   YZ=              2.2824

  Exact polarizability:     102.230      -9.924      91.086      -0.237      -4.552      61.709
 Approx polarizability:     133.172     -21.004     159.351       1.014     -13.968      88.412

 Summary of Natural Population Analysis:

                                       Natural Population
                Natural  -----------------------------------------------
    Atom  No    Charge         Core      Valence    Rydberg      Total
 -----------------------------------------------------------------------
      S    1   -0.34047      9.99899     6.31038    0.03111    16.34047
      S    2   -0.39153      9.99900     6.36569    0.02684    16.39153
      O    3   -0.58086      1.99958     6.56632    0.01496     8.58086
      C    4   -0.56315      1.99912     4.55395    0.01008     6.56315
      H    5    0.19695      0.00000     0.79671    0.00634     0.80305
      H    6    0.18310      0.00000     0.81314    0.00376     0.81690
      H    7    0.16426      0.00000     0.83261    0.00313     0.83574
      C    8    0.17905      1.99896     3.79605    0.02594     5.82095
      C    9    0.00999      1.99936     3.93991    0.05074     5.99001
      C   10   -0.53320      1.99888     4.52055    0.01377     6.53320
      H   11    0.17577      0.00000     0.81933    0.00490     0.82423
      H   12    0.17156      0.00000     0.82336    0.00508     0.82844
      H   13    0.16033      0.00000     0.83441    0.00526     0.83967
      C   14   -0.35178      1.99876     4.33353    0.01949     6.35178
      H   15    0.16449      0.00000     0.82991    0.00560     0.83551
      H   16    0.16265      0.00000     0.82481    0.01254     0.83735
      H   17    0.19286      0.00000     0.80076    0.00638     0.80714
 =======================================================================
   * Total *   -1.00000     31.99263    47.76141    0.24595    80.00000

 ******   11 imaginary frequencies (negative Signs) ******

                      1                      2                      3
                      A                      A                      A
 Frequencies --  -1383.2531             -1321.6415             -1042.0454
 Red. masses --      1.0116                 1.0205                 1.1308
 Frc consts  --      1.1404                 1.0502                 0.7235
 IR Inten    --      0.0259                 0.1563                 0.6209

                      4                      5                      6
                      A                      A                      A
 Frequencies --  -1026.1208             -1011.6621              -936.7130
 Red. masses --      1.1062                 1.1285                 1.2320
 Frc consts  --      0.6862                 0.6805                 0.6369
 IR Inten    --      9.2468                 9.9003                 1.8997

                      7                      8                      9
                      A                      A                      A
 Frequencies --   -908.2653              -439.3983              -391.3580
 Red. masses --      1.1299                 1.6648                 1.4638
 Frc consts  --      0.5492                 0.1894                 0.1321
 IR Inten    --      4.1003                 7.1439                 4.9337

                     10                     11                     12
                      A                      A                      A
 Frequencies --   -307.6129              -295.8342               183.0075
 Red. masses --      2.3639                 2.8890                 1.2688
 Frc consts  --      0.1318                 0.1490                 0.0250
 IR Inten    --      1.9710                 5.8811                27.4162

                     13                     14                     15
                      A                      A                      A
 Frequencies --    218.4011               301.1001               379.3550
 Red. masses --      6.3114                 9.7989                 5.2682
 Frc consts  --      0.1774                 0.5234                 0.4467
 IR Inten    --      5.4189                 4.0488                 2.5387

                     16                     17                     18
                      A                      A                      A
 Frequencies --    472.5104               531.8717               596.0340
 Red. masses --      6.1949                 5.3333                 5.5228
 Frc consts  --      0.8149                 0.8889                 1.1560
 IR Inten    --      2.5748                 1.2943                 4.3225

                     19                     20                     21
                      A                      A                      A
 Frequencies --    634.8961               657.4925               740.5581
 Red. masses --      3.4386                 1.8824                 2.7436
 Frc consts  --      0.8167                 0.4795                 0.8865
 IR Inten    --      1.2990                 4.4995                11.2388

                     22                     23                     24
                      A                      A                      A
 Frequencies --    776.0355               803.7660               832.1362
 Red. masses --      2.8748                 1.9212                 1.1517
 Frc consts  --      1.0200                 0.7313                 0.4699
 IR Inten    --      9.5292                21.8824                 5.4997

                     25                     26                     27
                      A                      A                      A
 Frequencies --    907.6031               935.6003               987.4818
 Red. masses --      1.4166                 1.1427                 1.4838
 Frc consts  --      0.6875                 0.5893                 0.8525
 IR Inten    --      1.2935                 9.3819                 3.0607

                     28                     29                     30
                      A                      A                      A
 Frequencies --   1045.7248              1092.1960              1125.1905
 Red. masses --      2.0286                 2.1757                 1.4726
 Frc consts  --      1.3070                 1.5291                 1.0984
 IR Inten    --     22.9514                32.4529                18.8935

                     31                     32                     33
                      A                      A                      A
 Frequencies --   1136.8931              1186.3157              1210.4508
 Red. masses --      1.6425                 3.4212                 1.2403
 Frc consts  --      1.2508                 2.8368                 1.0707
 IR Inten    --     24.5675               270.8087                 7.0283

                     34                     35                     36
                      A                      A                      A
 Frequencies --   1242.2004              1265.5938              2519.8391
 Red. masses --      2.9362                 7.6515                 8.0265
 Frc consts  --      2.6694                 7.2208                30.0275
 IR Inten    --    143.7223               496.3297                 1.8463

                     37                     38                     39
                      A                      A                      A
 Frequencies --   4367.3677              4396.0188              4423.7731
 Red. masses --      1.0647                 1.0879                 1.0503
 Frc consts  --     11.9646                12.3864                12.1101
 IR Inten    --     33.0369                11.4125                62.7856

                     40                     41                     42
                      A                      A                      A
 Frequencies --   4470.1571              4485.4324              4596.5511
 Red. masses --      1.0320                 1.0975                 1.0999
 Frc consts  --     12.1499                13.0097                13.6925
 IR Inten    --     13.7628                19.8455                36.9748

                     43                     44                     45
                      A                      A                      A
 Frequencies --   4643.4799              4676.6033              4682.4146
 Red. masses --      1.1022                 1.1071                 1.1066
 Frc consts  --     14.0026                14.2655                14.2952
 IR Inten    --     29.5135                 7.4549                 5.7541

 - Thermochemistry -
 -------------------
 Temperature   298.150 Kelvin.  Pressure   1.00000 Atm.
 Atom     1 has atomic number 16 and mass  31.97207

 Molecular mass:   149.00948 amu.
 Principal axes and moments of inertia in atomic units:
                           1         2         3
     Eigenvalues --   740.296862221.203732532.88959
           X            0.99997   0.00722   0.00417
           Y           -0.00742   0.99868   0.05089
           Z           -0.00380  -0.05092   0.99870
 This molecule is an asymmetric top.
 Rotational symmetry number  1.
 Warning -- assumption of classical behavior for rotation
           may cause significant error
 Rotational temperatures (Kelvin)      0.11700     0.03899     0.03420
 Rotational constants (GHZ):           2.43786     0.81251     0.71252
   11 imaginary frequencies ignored.
 Zero-point vibrational energy     373976.9 (Joules/Mol)
                                   89.38262 (Kcal/Mol)
 Warning -- explicit consideration of   7 degrees of freedom as
           vibrations may cause significant error
 Vibrational temperatures:    263.31   314.23   433.22   545.81   679.84
          (Kelvin)            765.24   857.56   913.47   945.99  1065.50
                             1116.54  1156.44  1197.26  1305.84  1346.12
                             1420.77  1504.56  1571.43  1618.90  1635.74
                             1706.84  1741.57  1787.25  1820.91  3625.49
                             6283.67  6324.89  6364.82  6431.56  6453.54
                             6613.41  6680.93  6728.59  6736.95

 Zero-point correction=                           0.142440 (Hartree/Particle)
 Thermal correction to Energy=                    0.148653
 Thermal correction to Enthalpy=                  0.149598
 Thermal correction to Gibbs Free Energy=         0.110828
 Sum of electronic and zero-point Energies=          -1066.169413
 Sum of electronic and thermal Energies=             -1066.163200
 Sum of electronic and thermal Enthalpies=           -1066.162256
 Sum of electronic and thermal Free Energies=        -1066.201025

                     E (Thermal)             CV                S
                      KCal/Mol        Cal/Mol-Kelvin    Cal/Mol-Kelvin
 Total                   93.281             24.132             81.597
 Electronic               0.000              0.000              0.000
 Translational            0.889              2.981             40.907
 Rotational               0.889              2.981             29.811
 Vibrational             91.504             18.170             10.879
 Vibration     1          0.631              1.863              2.298
 Vibration     2          0.646              1.813              1.972
 Vibration     3          0.693              1.672              1.411
 Vibration     4          0.749              1.514              1.042
 Vibration     5          0.829              1.311              0.731
 Vibration     6          0.887              1.179              0.583
 Vibration     7          0.954              1.040              0.457

 Normal termination of Gaussian 16 at Mon Mar  6 10:29:47 2023.
