 Gaussian 16, Revision C.01,
 Gaussian 16:  ES64L-G16RevC.01  3-Jul-2019

 ----------------------------------------------------------------------
 #p pop=(regular,nbo,savenbos) freq=noraman def2svp empiricaldispersion
 =gd3bj output=wfx pbe1pbe
 ----------------------------------------------------------------------

 ----------------------------------------
 RASMUT_Complex_1_Ligand_0_ON_Cu_oriented
 ----------------------------------------
 Symbolic Z-matrix:
 Charge = -1 Multiplicity = 1

                         Standard orientation:
 ---------------------------------------------------------------------
 Center     Atomic      Atomic             Coordinates (Angstroms)
 Number     Number       Type             X           Y           Z
 ---------------------------------------------------------------------
      1          8           0        1.483842   -1.556781   -0.794553
      2          7           0        0.374410    0.835086   -0.373644
      3          6           0       -0.597574    0.935022    0.746445
      4          6           0       -2.036779    1.039784    0.284132
      5          6           0        1.755633    0.609464    0.171853
      6          6           0        2.125569   -0.870203    0.063267
      7          1           0       -0.383355    0.244297    1.388194
      8          1           0        1.566775    0.837809    1.349731
      9          6           0        2.753733    1.444649   -0.588346
     10          1           0        2.847994    1.405031   -1.581468
     11          1           0        3.689635    1.359632   -0.219818
     12          1           0        2.328508    2.380027   -0.383836
     13          8           0       -2.021785   -1.343103    0.157242
     14          7           0       -3.920568   -0.283177   -0.380404
     15          6           0       -2.663004   -0.298052    0.005926
     16          1           0       -4.371841    0.603470   -0.311192
     17          1           0       -4.502055   -0.974990   -0.680090
     18          8           0        3.057381   -1.286706    0.747769
     19          1           0        0.437240    1.683994   -0.980257
     20          1           0       -0.283396    1.770206    1.186505
     21          1           0       -2.164179    1.593282   -0.358773
     22          1           0       -2.523179    1.562616    0.886017
 ---------------------------------------------------------------------

 SCF Done:  E(RPBE1PBE) =  -569.248499420     A.U. after   18 cycles

 The electronic state is 1-A.
 Alpha  occ. eigenvalues --  -19.04461 -18.90584 -18.89031 -14.31375 -14.20649
 Alpha  occ. eigenvalues --  -10.21448 -10.09833 -10.09155 -10.08466 -10.06756
 Alpha  occ. eigenvalues --  -10.05807  -0.92976  -0.83330  -0.80230  -0.76011
 Alpha  occ. eigenvalues --   -0.69948  -0.69076  -0.61817  -0.55302  -0.51903
 Alpha  occ. eigenvalues --   -0.47102  -0.46221  -0.41282  -0.37511  -0.33999
 Alpha  occ. eigenvalues --   -0.33571  -0.31005  -0.30019  -0.28634  -0.27516
 Alpha  occ. eigenvalues --   -0.26409  -0.24400  -0.22859  -0.21047  -0.19604
 Alpha  occ. eigenvalues --   -0.17328  -0.15874  -0.14788  -0.13981  -0.06277
 Alpha  occ. eigenvalues --   -0.01265  -0.01062   0.01170
 Alpha virt. eigenvalues --    0.14329   0.15705   0.18915   0.20450   0.22710
 Alpha virt. eigenvalues --    0.23232   0.25740   0.27449   0.28321   0.29713
 Alpha virt. eigenvalues --    0.30715   0.31501   0.33713   0.35703   0.36651

 Mulliken charges:
               1
     1  O   -0.449852
     2  N   -0.300200
     3  C    0.247447
     4  C    0.225624
     5  C   -0.150814
     6  C    0.136179
     7  H   -0.010924
     8  H   -0.025181
     9  C    0.107746
    10  H   -0.016396
    11  H   -0.004707
    12  H   -0.037106
    13  O   -0.257047
    14  N   -0.063811
    15  C    0.066694
    16  H    0.097061
    17  H    0.090101
    18  O   -0.434358
    19  H    0.061503
    20  H   -0.074049
    21  H   -0.131411
    22  H   -0.076499
 Sum of Mulliken charges =  -1.00000

 Dipole moment (field-independent basis, Debye):
    X=            -12.2269    Y=              9.4140    Z=             -0.1673  Tot=             15.4320
 Quadrupole moment (field-independent basis, Debye-Ang):
   XX=            -77.7261   YY=            -80.5117   ZZ=            -70.4947
   XY=              9.9710   XZ=             -1.5562   YZ=             -1.2152

  Exact polarizability:     101.177      -2.978      79.727       5.032       1.051      67.449
 Approx polarizability:     124.760     -10.373     113.437      14.026       1.785     103.119

 Summary of Natural Population Analysis:

                                       Natural Population
                Natural  -----------------------------------------------
    Atom  No    Charge         Core      Valence    Rydberg      Total
 -----------------------------------------------------------------------
      O    1   -0.78113      1.99976     6.77241    0.00895     8.78113
      N    2   -0.70390      1.99940     5.68804    0.01646     7.70390
      C    3   -0.15196      1.99903     4.13556    0.01737     6.15196
      C    4   -0.43376      1.99846     4.41716    0.01814     6.43376
      C    5   -0.13704      1.99908     4.11314    0.02482     6.13704
      C    6    0.77111      1.99930     3.15352    0.07607     5.22889
      H    7    0.20019      0.00000     0.79555    0.00425     0.79981
      H    8    0.17888      0.00000     0.81274    0.00838     0.82112
      C    9   -0.60205      1.99914     4.59322    0.00970     6.60205
      H   10    0.19797      0.00000     0.79772    0.00431     0.80203
      H   11    0.20981      0.00000     0.78455    0.00564     0.79019
      H   12    0.17724      0.00000     0.81611    0.00665     0.82276
      O   13   -0.61011      1.99975     6.60073    0.00964     8.61011
      N   14   -0.81402      1.99923     5.80342    0.01137     7.81402
      C   15    0.70531      1.99935     3.24689    0.04845     5.29469
      H   16    0.36404      0.00000     0.63114    0.00482     0.63596
      H   17    0.38317      0.00000     0.61047    0.00636     0.61683
      O   18   -0.79569      1.99973     6.78544    0.01051     8.79569
      H   19    0.32597      0.00000     0.66672    0.00731     0.67403
      H   20    0.16182      0.00000     0.83306    0.00513     0.83818
      H   21    0.16360      0.00000     0.83187    0.00453     0.83640
      H   22    0.19054      0.00000     0.80484    0.00462     0.80946
 =======================================================================
   * Total *   -1.00000     21.99224    63.69430    0.31346    86.00000

 ******   14 imaginary frequencies (negative Signs) ******

                      1                      2                      3
                      A                      A                      A
 Frequencies --  -2053.7044             -1868.4896             -1029.7235
 Red. masses --      1.0642                 1.0688                 1.0707
 Frc consts  --      2.6445                 2.1986                 0.6689
 IR Inten    --     11.0440                 0.8630                 5.7389

                      4                      5                      6
                      A                      A                      A
 Frequencies --   -995.6870              -989.4428              -906.7220
 Red. masses --      1.0513                 1.0380                 1.1111
 Frc consts  --      0.6141                 0.5987                 0.5382
 IR Inten    --      1.5444                 4.3888               135.4288

                      7                      8                      9
                      A                      A                      A
 Frequencies --   -676.9608              -548.5719              -427.6468
 Red. masses --      1.1264                 1.1783                 1.3051
 Frc consts  --      0.3041                 0.2089                 0.1406
 IR Inten    --      0.7322                18.8391                 8.6533

                     10                     11                     12
                      A                      A                      A
 Frequencies --   -369.5196              -276.5249              -161.4764
 Red. masses --      1.4747                 1.6025                 3.2450
 Frc consts  --      0.1186                 0.0722                 0.0499
 IR Inten    --      3.7363                 4.7131                12.3585

                     13                     14                     15
                      A                      A                      A
 Frequencies --   -111.9270               -80.3281               172.8392
 Red. masses --      9.7878                 3.8670                 6.0612
 Frc consts  --      0.0722                 0.0147                 0.1067
 IR Inten    --      0.7117                21.1159                 2.8443

                     16                     17                     18
                      A                      A                      A
 Frequencies --    260.5327               291.3376               310.4123
 Red. masses --      2.7314                 2.2168                 2.7791
 Frc consts  --      0.1092                 0.1109                 0.1578
 IR Inten    --      7.6697                25.8731                10.2852

                     19                     20                     21
                      A                      A                      A
 Frequencies --    401.9975               481.9645               492.7842
 Red. masses --      6.0790                 4.8356                 6.0102
 Frc consts  --      0.5788                 0.6618                 0.8599
 IR Inten    --      9.1003                 1.8583                10.2161

                     22                     23                     24
                      A                      A                      A
 Frequencies --    508.9199               611.1064               656.1140
 Red. masses --      3.6431                 1.4656                 3.0950
 Frc consts  --      0.5559                 0.3225                 0.7850
 IR Inten    --      2.3904                23.4962                 5.7348

                     25                     26                     27
                      A                      A                      A
 Frequencies --    700.7744               723.0343               769.7127
 Red. masses --      3.0997                 4.9660                 2.9645
 Frc consts  --      0.8969                 1.5296                 1.0348
 IR Inten    --      7.0344                21.7369                 6.3957

                     28                     29                     30
                      A                      A                      A
 Frequencies --    851.3772               855.7649               883.4639
 Red. masses --      5.1981                 9.1158                 3.8138
 Frc consts  --      2.2199                 3.9333                 1.7538
 IR Inten    --     10.8308                34.9836                 1.2100

                     31                     32                     33
                      A                      A                      A
 Frequencies --    914.4226               945.8803              1024.6371
 Red. masses --      2.2666                 3.0485                 2.3354
 Frc consts  --      1.1167                 1.6070                 1.4446
 IR Inten    --    108.0161                 9.6728                 6.9569

                     34                     35                     36
                      A                      A                      A
 Frequencies --   1059.5846              1071.0739              1103.6907
 Red. masses --      1.3456                 2.3266                 2.5934
 Frc consts  --      0.8901                 1.5726                 1.8613
 IR Inten    --      9.7923                 2.4474                 1.1862

                     37                     38                     39
                      A                      A                      A
 Frequencies --   1112.5649              1160.9094              1173.9879
 Red. masses --      2.6954                 2.0342                 3.1507
 Frc consts  --      1.9657                 1.6153                 2.5585
 IR Inten    --     36.9827                 4.7498                14.5105

                     40                     41                     42
                      A                      A                      A
 Frequencies --   1258.0102              1303.6572              1378.7839
 Red. masses --      1.0800                 1.0564                 1.6274
 Frc consts  --      1.0070                 1.0578                 1.8228
 IR Inten    --      4.1512                 9.8620                34.2401

                     43                     44                     45
                      A                      A                      A
 Frequencies --   1424.3750              1432.1331              1448.2652
 Red. masses --      2.4276                 1.8765                 1.3518
 Frc consts  --      2.9019                 2.2676                 1.6705
 IR Inten    --    103.8335                81.6722                27.9893

                     46                     47                     48
                      A                      A                      A
 Frequencies --   1507.6637              1644.5651              1788.2196
 Red. masses --      1.5599                 2.0577                10.7237
 Frc consts  --      2.0891                 3.2790                20.2039
 IR Inten    --     36.8872               172.9077               480.4840

                     49                     50                     51
                      A                      A                      A
 Frequencies --   1810.4408              2106.6003              3212.4103
 Red. masses --     11.0708                 1.0881                 1.0758
 Frc consts  --     21.3795                 2.8451                 6.5408
 IR Inten    --    310.8354               157.7522                28.8150

                     52                     53                     54
                      A                      A                      A
 Frequencies --   3567.1462              3820.7132              4034.6382
 Red. masses --      1.0660                 1.0679                 1.0786
 Frc consts  --      7.9916                 9.1845                10.3448
 IR Inten    --     58.3575                 9.9204                 9.8895

                     55                     56                     57
                      A                      A                      A
 Frequencies --   4130.8203              4175.5293              4444.1374
 Red. masses --      1.0783                 1.0955                 1.0811
 Frc consts  --     10.8412                11.2532                12.5805
 IR Inten    --     67.3230                 8.1961                60.0964

                     58                     59                     60
                      A                      A                      A
 Frequencies --   4551.5671              4920.8318              6075.6826
 Red. masses --      1.0898                 1.0818                 1.0851
 Frc consts  --     13.3025                15.4337                23.5993
 IR Inten    --      0.2883                19.5903                 1.3017

 - Thermochemistry -
 -------------------
 Temperature   298.150 Kelvin.  Pressure   1.00000 Atm.
 Atom     1 has atomic number  8 and mass  15.99491

 Molecular mass:   159.07697 amu.
 Principal axes and moments of inertia in atomic units:
                           1         2         3
     Eigenvalues --   841.635003270.511353783.68162
           X            0.99989   0.01472  -0.00295
           Y           -0.01472   0.99989  -0.00160
           Z            0.00293   0.00165   0.99999
 This molecule is an asymmetric top.
 Rotational symmetry number  1.
 Warning -- assumption of classical behavior for rotation
           may cause significant error
 Rotational temperatures (Kelvin)      0.10291     0.02648     0.02289
 Rotational constants (GHZ):           2.14433     0.55182     0.47698
   14 imaginary frequencies ignored.
 Zero-point vibrational energy     469983.3 (Joules/Mol)
                                  112.32871 (Kcal/Mol)
 Warning -- explicit consideration of   9 degrees of freedom as
           vibrations may cause significant error
 Vibrational temperatures:    248.68   374.85   419.17   446.61   578.38
          (Kelvin)            693.44   709.01   732.22   879.25   944.00
                             1008.26  1040.29  1107.44  1224.94  1231.25
                             1271.11  1315.65  1360.91  1474.22  1524.51
                             1541.04  1587.96  1600.73  1670.29  1689.11
                             1810.00  1875.67  1983.76  2049.36  2060.52
                             2083.73  2169.19  2366.16  2572.85  2604.82
                             3030.93  4621.94  5132.33  5497.15  5804.94
                             5943.33  6007.66  6394.12  6548.69  7079.98
                             8741.55

 Zero-point correction=                           0.179007 (Hartree/Particle)
 Thermal correction to Energy=                    0.185858
 Thermal correction to Enthalpy=                  0.186802
 Thermal correction to Gibbs Free Energy=         0.146594
 Sum of electronic and zero-point Energies=           -569.069492
 Sum of electronic and thermal Energies=              -569.062641
 Sum of electronic and thermal Enthalpies=            -569.061697
 Sum of electronic and thermal Free Energies=         -569.101905

                     E (Thermal)             CV                S
                      KCal/Mol        Cal/Mol-Kelvin    Cal/Mol-Kelvin
 Total                  116.628             27.856             84.624
 Electronic               0.000              0.000              0.000
 Translational            0.889              2.981             41.102
 Rotational               0.889              2.981             30.722
 Vibrational            114.850             21.895             12.801
 Vibration     1          0.626              1.876              2.404
 Vibration     2          0.669              1.745              1.658
 Vibration     3          0.687              1.690              1.466
 Vibration     4          0.699              1.654              1.360
 Vibration     5          0.768              1.466              0.955
 Vibration     6          0.838              1.290              0.705
 Vibration     7          0.848              1.266              0.676
 Vibration     8          0.864              1.230              0.636
 Vibration     9          0.970              1.008              0.431

 Normal termination of Gaussian 16 at Mon Mar  6 10:36:13 2023.
