 Gaussian 16, Revision C.01,
 Gaussian 16:  ES64L-G16RevC.01  3-Jul-2019

 ----------------------------------------------------------------------
 #p pop=(regular,nbo,savenbos) freq=noraman def2svp empiricaldispersion
 =gd3bj output=wfx pbe1pbe
 ----------------------------------------------------------------------

 ----------------------------------------
 RIBVAR_Complex_3_Ligand_0_ON_Cu_oriented
 ----------------------------------------
 Symbolic Z-matrix:
 Charge =  0 Multiplicity = 1

                         Standard orientation:
 ---------------------------------------------------------------------
 Center     Atomic      Atomic             Coordinates (Angstroms)
 Number     Number       Type             X           Y           Z
 ---------------------------------------------------------------------
      1          7           0        0.611474   -0.617714   -0.666109
      2          7           0        1.280327    0.192897    0.200231
      3          6           0        2.528111   -0.039183   -0.136602
      4          7           0        2.688759   -0.931967   -1.142344
      5          6           0        1.443864   -1.264714   -1.466821
      6          6           0        3.785265    0.513539    0.433242
      7          8           0        4.841106    0.082635   -0.103496
      8          7           0        3.743119    1.364281    1.425941
      9          6           0       -0.848492   -0.759900   -0.616047
     10          6           0       -1.345699   -0.983922    0.807679
     11          6           0       -2.788377   -0.495851    0.711061
     12          6           0       -2.657044    0.665748   -0.278256
     13          8           0       -1.452445    0.440627   -1.062880
     14          8           0       -1.149941   -2.327124    1.169541
     15          8           0       -3.603469   -1.561404    0.231013
     16          1           0        1.250655   -1.848469   -2.175538
     17          1           0        2.942888    1.909695    1.688253
     18          1           0        4.478455    1.613730    2.050420
     19          1           0       -0.903110   -1.622349   -0.923521
     20          1           0       -0.645487   -0.355933    1.074632
     21          1           0       -1.720552   -2.449065    1.958728
     22          1           0       -4.305763   -0.966093   -0.056682
     23          1           0       -3.330688    0.558870   -0.881671
     24          6           0       -2.546440    2.024636    0.389787
     25          1           0       -3.475933    2.168066    0.707553
     26          1           0       -1.777734    2.165858    0.923082
     27          8           0       -2.467628    3.000566   -0.648502
     28          1           0       -2.359590    3.984142   -0.447641
     29          1           0       -3.187013   -0.255441    1.608680
 ---------------------------------------------------------------------

 SCF Done:  E(RPBE1PBE) =  -905.317969284     A.U. after   15 cycles

 The electronic state is 1-A.
 Alpha  occ. eigenvalues --  -19.24223 -19.23946 -19.23357 -19.20341 -19.15371
 Alpha  occ. eigenvalues --  -14.48602 -14.42465 -14.41619 -14.37193 -10.32801
 Alpha  occ. eigenvalues --  -10.32168 -10.30710 -10.29571 -10.28948 -10.28669
 Alpha  occ. eigenvalues --  -10.28191 -10.27857  -1.12476  -1.09758  -1.07096
 Alpha  occ. eigenvalues --   -1.05713  -1.02591  -1.02428  -0.92922  -0.92110
 Alpha  occ. eigenvalues --   -0.87850  -0.82775  -0.80978  -0.73318  -0.69777
 Alpha  occ. eigenvalues --   -0.67480  -0.66212  -0.64210  -0.62059  -0.60010
 Alpha  occ. eigenvalues --   -0.57625  -0.56190  -0.55463  -0.54128  -0.53024
 Alpha  occ. eigenvalues --   -0.51025  -0.50523  -0.50257  -0.48720  -0.46698
 Alpha  occ. eigenvalues --   -0.45791  -0.45274  -0.42679  -0.41871  -0.41174
 Alpha  occ. eigenvalues --   -0.40177  -0.39295  -0.36240  -0.34988  -0.33951
 Alpha  occ. eigenvalues --   -0.31964  -0.31257  -0.30603  -0.29675  -0.29153
 Alpha  occ. eigenvalues --   -0.28596  -0.28121  -0.26961  -0.24513
 Alpha virt. eigenvalues --   -0.02206   0.02059   0.03577   0.04394   0.06086
 Alpha virt. eigenvalues --    0.06972   0.08746   0.09964   0.10778   0.11033
 Alpha virt. eigenvalues --    0.12052   0.13138   0.14063   0.14297   0.15548

 Mulliken charges:
               1
     1  N   -0.261073
     2  N   -0.093696
     3  C   -0.033857
     4  N   -0.207800
     5  C    0.321004
     6  C    0.146974
     7  O   -0.269922
     8  N   -0.079573
     9  C    0.504181
    10  C    0.182773
    11  C   -0.014416
    12  C    0.259341
    13  O   -0.397453
    14  O   -0.302373
    15  O   -0.280159
    16  H   -0.063006
    17  H    0.131002
    18  H    0.133791
    19  H   -0.090110
    20  H   -0.026638
    21  H    0.194790
    22  H    0.168370
    23  H   -0.110315
    24  C    0.470769
    25  H   -0.025059
    26  H   -0.037749
    27  O   -0.425191
    28  H    0.202535
    29  H    0.002859
 Sum of Mulliken charges =  -0.00000

 Dipole moment (field-independent basis, Debye):
    X=             -7.6690    Y=              3.6473    Z=              4.9952  Tot=              9.8524
 Quadrupole moment (field-independent basis, Debye-Ang):
   XX=           -109.8754   YY=            -88.3662   ZZ=            -88.8539
   XY=              4.7441   XZ=              6.3230   YZ=              8.9924

  Exact polarizability:     144.698       1.462     107.023      -3.473      11.316      93.454
 Approx polarizability:     188.966      -4.701     150.705     -12.296      22.776     143.995

 Summary of Natural Population Analysis:

                                       Natural Population
                Natural  -----------------------------------------------
    Atom  No    Charge         Core      Valence    Rydberg      Total
 -----------------------------------------------------------------------
      N    1   -0.23691      1.99914     5.21835    0.01942     7.23691
      N    2   -0.35212      1.99933     5.33292    0.01987     7.35212
      C    3    0.29174      1.99916     3.66615    0.04294     5.70826
      N    4   -0.49840      1.99940     5.48325    0.01575     7.49840
      C    5    0.30310      1.99920     3.67042    0.02728     5.69690
      C    6    0.65016      1.99911     3.30731    0.04342     5.34984
      O    7   -0.60417      1.99977     6.59620    0.00820     8.60417
      N    8   -0.80811      1.99924     5.79903    0.00985     7.80811
      C    9    0.38389      1.99856     3.58471    0.03283     5.61611
      C   10    0.10552      1.99867     3.87057    0.02524     5.89448
      C   11    0.08671      1.99896     3.89065    0.02369     5.91329
      C   12    0.15196      1.99871     3.82364    0.02570     5.84804
      O   13   -0.59228      1.99974     6.58098    0.01156     8.59228
      O   14   -0.73935      1.99975     6.72763    0.01196     8.73935
      O   15   -0.73464      1.99978     6.72186    0.01299     8.73464
      H   16    0.17088      0.00000     0.82721    0.00191     0.82912
      H   17    0.39854      0.00000     0.59671    0.00475     0.60146
      H   18    0.40636      0.00000     0.58841    0.00523     0.59364
      H   19    0.13894      0.00000     0.85026    0.01081     0.86106
      H   20    0.19480      0.00000     0.79794    0.00726     0.80520
      H   21    0.47397      0.00000     0.51924    0.00678     0.52603
      H   22    0.45530      0.00000     0.53686    0.00784     0.54470
      H   23    0.14129      0.00000     0.85133    0.00738     0.85871
      C   24    0.00890      1.99901     3.97527    0.01682     5.99110
      H   25    0.16922      0.00000     0.82651    0.00427     0.83078
      H   26    0.16199      0.00000     0.83446    0.00355     0.83801
      O   27   -0.78976      1.99977     6.78037    0.00963     8.78976
      H   28    0.48088      0.00000     0.51322    0.00590     0.51912
      H   29    0.18161      0.00000     0.81432    0.00407     0.81839
 =======================================================================
   * Total *   -0.00000     33.98731    93.58579    0.42690   128.00000

 ******   14 imaginary frequencies (negative Signs) ******

                      1                      2                      3
                      A                      A                      A
 Frequencies --  -1297.7555             -1261.4360             -1162.0598
 Red. masses --      1.0554                 1.0718                 1.0884
 Frc consts  --      1.0473                 1.0049                 0.8659
 IR Inten    --     16.6498                 1.1599                10.9308

                      4                      5                      6
                      A                      A                      A
 Frequencies --  -1136.3082             -1085.6122              -968.1767
 Red. masses --      1.1242                 1.0658                 1.1663
 Frc consts  --      0.8552                 0.7401                 0.6441
 IR Inten    --     14.3661                13.2065                38.2812

                      7                      8                      9
                      A                      A                      A
 Frequencies --   -798.5051              -686.6555              -377.2131
 Red. masses --      1.0631                 1.2477                 1.8694
 Frc consts  --      0.3994                 0.3466                 0.1567
 IR Inten    --      6.4536                11.5405                12.2124

                     10                     11                     12
                      A                      A                      A
 Frequencies --   -275.9429              -243.0045              -214.7590
 Red. masses --      1.3214                 2.6186                 2.7074
 Frc consts  --      0.0593                 0.0911                 0.0736
 IR Inten    --      8.0272                 2.0095                20.9999

                     13                     14                     15
                      A                      A                      A
 Frequencies --   -131.7013               -77.4971                73.9340
 Red. masses --      4.2762                 4.5060                 5.6340
 Frc consts  --      0.0437                 0.0159                 0.0181
 IR Inten    --      1.5955                 3.8270                 1.5087

                     16                     17                     18
                      A                      A                      A
 Frequencies --    138.0050               192.7070               234.6271
 Red. masses --      4.4825                 3.3830                 2.1430
 Frc consts  --      0.0503                 0.0740                 0.0695
 IR Inten    --      2.6084                13.1483                63.4473

                     19                     20                     21
                      A                      A                      A
 Frequencies --    264.5560               289.0285               344.9587
 Red. masses --      5.2442                 5.2162                 3.3018
 Frc consts  --      0.2163                 0.2567                 0.2315
 IR Inten    --      2.9855                 3.7724                12.9834

                     22                     23                     24
                      A                      A                      A
 Frequencies --    355.0446               367.0021               379.3872
 Red. masses --      2.8105                 1.4722                 2.6263
 Frc consts  --      0.2087                 0.1168                 0.2227
 IR Inten    --     21.9173               139.6894                19.4317

                     25                     26                     27
                      A                      A                      A
 Frequencies --    410.1751               412.3078               454.4139
 Red. masses --      4.1535                 4.7909                 3.6439
 Frc consts  --      0.4117                 0.4799                 0.4433
 IR Inten    --      9.1087                10.5568                24.5451

                     28                     29                     30
                      A                      A                      A
 Frequencies --    486.5321               503.5880               535.4252
 Red. masses --      3.0934                 1.4954                 3.4660
 Frc consts  --      0.4314                 0.2234                 0.5854
 IR Inten    --     56.0784                67.4929                 6.5200

                     31                     32                     33
                      A                      A                      A
 Frequencies --    579.7935               622.9093               664.5887
 Red. masses --      4.3115                 3.2086                 1.9162
 Frc consts  --      0.8539                 0.7335                 0.4986
 IR Inten    --     30.1139                21.6887                54.8612

                     34                     35                     36
                      A                      A                      A
 Frequencies --    669.3937               682.3623               706.8677
 Red. masses --      2.8617                 2.0930                 4.1510
 Frc consts  --      0.7555                 0.5742                 1.2220
 IR Inten    --     43.1143                21.7748                16.9226

                     37                     38                     39
                      A                      A                      A
 Frequencies --    718.5072               728.3524               759.9206
 Red. masses --      5.1936                 5.8697                 3.5920
 Frc consts  --      1.5797                 1.8346                 1.2221
 IR Inten    --     53.7464                17.4456                26.4199

                     40                     41                     42
                      A                      A                      A
 Frequencies --    785.1818               829.9538               840.8707
 Red. masses --      1.8513                 2.3648                10.5163
 Frc consts  --      0.6725                 0.9598                 4.3810
 IR Inten    --      3.9077                31.1054                 3.3938

                     43                     44                     45
                      A                      A                      A
 Frequencies --    863.0547               902.7041               945.5995
 Red. masses --      1.9969                 2.3473                 2.8176
 Frc consts  --      0.8764                 1.1270                 1.4844
 IR Inten    --     15.8879                15.0165                60.5508

                     46                     47                     48
                      A                      A                      A
 Frequencies --    987.8622              1002.2249              1050.4180
 Red. masses --      2.2822                 2.3756                 3.5825
 Frc consts  --      1.3122                 1.4059                 2.3290
 IR Inten    --     24.1457                15.0447                28.7699

                     49                     50                     51
                      A                      A                      A
 Frequencies --   1060.1481              1082.4373              1091.9186
 Red. masses --      5.4582                 3.1393                 6.7435
 Frc consts  --      3.6144                 2.1672                 4.7371
 IR Inten    --     79.5269                20.2854                27.1155

                     52                     53                     54
                      A                      A                      A
 Frequencies --   1096.0184              1129.4281              1138.3638
 Red. masses --      6.0207                 3.1873                 2.4683
 Frc consts  --      4.2612                 2.3955                 1.8846
 IR Inten    --     71.7941                89.4180                39.5996

                     55                     56                     57
                      A                      A                      A
 Frequencies --   1179.3512              1197.6256              1215.4134
 Red. masses --      2.9763                 6.2421                 4.5907
 Frc consts  --      2.4390                 5.2750                 3.9956
 IR Inten    --     36.0988                39.3235               103.8501

                     58                     59                     60
                      A                      A                      A
 Frequencies --   1245.4387              1321.1764              1323.6469
 Red. masses --      2.7845                 3.2069                 1.7601
 Frc consts  --      2.5447                 3.2981                 1.8169
 IR Inten    --      7.5380               102.5442                85.9620

                     61                     62                     63
                      A                      A                      A
 Frequencies --   1364.8608              1412.8530              1426.7586
 Red. masses --      5.7529                 8.5238                 1.4562
 Frc consts  --      6.3142                10.0249                 1.7465
 IR Inten    --     75.4784                23.2563                69.4421

                     64                     65                     66
                      A                      A                      A
 Frequencies --   1450.2441              1500.9206              1546.8365
 Red. masses --      1.4409                 6.2736                 9.6138
 Frc consts  --      1.7855                 8.3269                13.5530
 IR Inten    --     34.6711               100.1326                71.1691

                     67                     68                     69
                      A                      A                      A
 Frequencies --   1590.2743              1627.6877              1775.6365
 Red. masses --      1.5902                11.4361                 4.2992
 Frc consts  --      2.3695                17.8514                 7.9864
 IR Inten    --     59.6520                 3.6617               345.4763

                     70                     71                     72
                      A                      A                      A
 Frequencies --   3276.3132              3647.7805              3764.5990
 Red. masses --      1.0697                 1.0663                 1.0675
 Frc consts  --      6.7651                 8.3597                 8.9140
 IR Inten    --     55.6807                65.0943                51.0332

                     73                     74                     75
                      A                      A                      A
 Frequencies --   3862.9260              3873.6218              3994.3317
 Red. masses --      1.0649                 1.0846                 1.0877
 Frc consts  --      9.3623                 9.5889                10.2251
 IR Inten    --     31.8574                80.9706                17.9414

                     76                     77                     78
                      A                      A                      A
 Frequencies --   4172.1289              4378.1801              4826.5893
 Red. masses --      1.0678                 1.0877                 1.0994
 Frc consts  --     10.9514                12.2837                15.0893
 IR Inten    --     19.3396                11.5532                 2.7735

                     79                     80                     81
                      A                      A                      A
 Frequencies --   4956.1404              5188.7545              5285.5870
 Red. masses --      1.0932                 1.0872                 1.0879
 Frc consts  --     15.8218                17.2456                17.9072
 IR Inten    --     11.0183                 4.1493                 6.3931

 - Thermochemistry -
 -------------------
 Temperature   298.150 Kelvin.  Pressure   1.00000 Atm.
 Atom     1 has atomic number  7 and mass  14.00307

 Molecular mass:   244.08077 amu.
 Principal axes and moments of inertia in atomic units:
                           1         2         3
     Eigenvalues --  2263.640396744.178167771.46125
           X            1.00000  -0.00124   0.00185
           Y            0.00119   0.99963   0.02706
           Z           -0.00188  -0.02706   0.99963
 This molecule is an asymmetric top.
 Rotational symmetry number  1.
 Warning -- assumption of classical behavior for rotation
           may cause significant error
 Rotational temperatures (Kelvin)      0.03826     0.01284     0.01115
 Rotational constants (GHZ):           0.79727     0.26760     0.23223
   14 imaginary frequencies ignored.
 Zero-point vibrational energy     590873.0 (Joules/Mol)
                                  141.22203 (Kcal/Mol)
 Warning -- explicit consideration of  17 degrees of freedom as
           vibrations may cause significant error
 Vibrational temperatures:    106.37   198.56   277.26   337.58   380.64
          (Kelvin)            415.85   496.32   510.83   528.03   545.85
                              590.15   593.22   653.80   700.01   724.55
                              770.36   834.19   896.23   956.19   963.11
                              981.77  1017.02  1033.77  1047.94  1093.36
                             1129.70  1194.12  1209.83  1241.74  1298.79
                             1360.51  1421.31  1441.98  1511.32  1525.32
                             1557.39  1571.03  1576.93  1625.00  1637.85
                             1696.82  1723.12  1748.71  1791.91  1900.88
                             1904.43  1963.73  2032.78  2052.79  2086.58
                             2159.49  2225.55  2288.05  2341.88  2554.74
                             4713.88  5248.34  5416.42  5557.89  5573.28
                             5746.95  6002.76  6299.22  6944.39  7130.78
                             7465.46  7604.78

 Zero-point correction=                           0.225052 (Hartree/Particle)
 Thermal correction to Energy=                    0.236091
 Thermal correction to Enthalpy=                  0.237035
 Thermal correction to Gibbs Free Energy=         0.187840
 Sum of electronic and zero-point Energies=           -905.092918
 Sum of electronic and thermal Energies=              -905.081878
 Sum of electronic and thermal Enthalpies=            -905.080934
 Sum of electronic and thermal Free Energies=         -905.130129

                     E (Thermal)             CV                S
                      KCal/Mol        Cal/Mol-Kelvin    Cal/Mol-Kelvin
 Total                  148.149             46.745            103.540
 Electronic               0.000              0.000              0.000
 Translational            0.889              2.981             42.378
 Rotational               0.889              2.981             33.139
 Vibrational            146.372             40.784             28.023
 Vibration     1          0.599              1.966              4.046
 Vibration     2          0.614              1.915              2.831
 Vibration     3          0.635              1.850              2.202
 Vibration     4          0.654              1.788              1.843
 Vibration     5          0.671              1.738              1.632
 Vibration     6          0.686              1.694              1.480
 Vibration     7          0.723              1.586              1.189
 Vibration     8          0.731              1.565              1.144
 Vibration     9          0.740              1.540              1.092
 Vibration    10          0.749              1.514              1.042
 Vibration    11          0.774              1.448              0.926
 Vibration    12          0.776              1.444              0.918
 Vibration    13          0.813              1.351              0.783
 Vibration    14          0.843              1.280              0.693
 Vibration    15          0.859              1.242              0.649
 Vibration    16          0.890              1.172              0.575
 Vibration    17          0.936              1.075              0.486

 Normal termination of Gaussian 16 at Sat Mar  4 12:02:33 2023.
