 Gaussian 16, Revision C.01,
 Gaussian 16:  ES64L-G16RevC.01  3-Jul-2019

 ----------------------------------------------------------------------
 #p pop=(regular,nbo,savenbos) freq=noraman def2svp empiricaldispersion
 =gd3bj output=wfx pbe1pbe
 ----------------------------------------------------------------------

 ----------------------------------------
 SAYNEN_Complex_2_Ligand_0_NN_Cu_oriented
 ----------------------------------------
 Symbolic Z-matrix:
 Charge = -1 Multiplicity = 1

                         Standard orientation:
 ---------------------------------------------------------------------
 Center     Atomic      Atomic             Coordinates (Angstroms)
 Number     Number       Type             X           Y           Z
 ---------------------------------------------------------------------
      1          8           0        2.154957    1.751370    0.650694
      2          7           0       -0.011231    1.678206    0.024732
      3          7           0        1.291613   -0.306512    0.398593
      4          6           0        1.089115    0.983471    0.346603
      5          6           0        3.178326    0.855931    1.121985
      6          6           0        2.707408   -0.540747    0.722390
      7          6           0        3.438918   -1.176337   -0.455200
      8          6           0        3.510657   -0.289159   -1.667637
      9          6           0        4.827233   -1.649798   -0.019202
     10          1           0        4.047861    1.067023    0.699655
     11          1           0        3.275018    0.924215    2.104568
     12          1           0        2.768493   -1.148143    1.514776
     13          1           0        2.919961   -1.989745   -0.717327
     14          1           0        3.984587   -0.757090   -2.387318
     15          1           0        3.990202    0.535166   -1.443301
     16          1           0        2.602672   -0.067503   -1.965896
     17          1           0        5.290990   -2.050883   -0.784820
     18          1           0        4.736734   -2.317346    0.693030
     19          1           0        5.344436   -0.885679    0.310810
     20          8           0       -2.192070    1.783168   -0.533674
     21          7           0       -1.303493   -0.271470   -0.479726
     22          6           0       -1.087819    1.005736   -0.314697
     23          6           0       -3.239619    0.929535   -1.005716
     24          6           0       -2.743082   -0.497080   -0.769742
     25          6           0       -3.439164   -1.252996    0.346175
     26          6           0       -3.356283   -0.534537    1.679489
     27          6           0       -4.844338   -1.554327   -0.051756
     28          1           0       -4.076788    1.095120   -0.505889
     29          1           0       -3.408111    1.085184   -1.969597
     30          1           0       -2.826301   -1.018361   -1.618767
     31          1           0       -2.967021   -2.127904    0.451065
     32          1           0       -3.815542   -1.063581    2.363698
     33          1           0       -3.784043    0.345145    1.603881
     34          1           0       -2.415378   -0.420407    1.930689
     35          1           0       -5.293156   -2.037031    0.673169
     36          1           0       -4.843279   -2.107152   -0.861143
     37          1           0       -5.320759   -0.717040   -0.228791
 ---------------------------------------------------------------------

 SCF Done:  E(RPBE1PBE) =  -782.401425260     A.U. after   14 cycles

 The electronic state is 1-A.
 Alpha  occ. eigenvalues --  -19.07172 -19.06196 -14.16298 -14.16138 -14.15781
 Alpha  occ. eigenvalues --  -10.14821 -10.14273 -10.12007 -10.11453 -10.09556
 Alpha  occ. eigenvalues --  -10.09200 -10.08881 -10.08442 -10.07993 -10.07599
 Alpha  occ. eigenvalues --  -10.06073 -10.05753  -0.94365  -0.93040  -0.75801
 Alpha  occ. eigenvalues --   -0.73918  -0.73619  -0.69284  -0.68453  -0.63213
 Alpha  occ. eigenvalues --   -0.61555  -0.61293  -0.59996  -0.53387  -0.52929
 Alpha  occ. eigenvalues --   -0.46888  -0.45576  -0.44590  -0.40094  -0.39958
 Alpha  occ. eigenvalues --   -0.38551  -0.36221  -0.35371  -0.34740  -0.34214
 Alpha  occ. eigenvalues --   -0.33868  -0.32761  -0.32606  -0.32215  -0.30803
 Alpha  occ. eigenvalues --   -0.30486  -0.28717  -0.28382  -0.27172  -0.25495
 Alpha  occ. eigenvalues --   -0.24538  -0.24083  -0.22960  -0.22831  -0.22246
 Alpha  occ. eigenvalues --   -0.22175  -0.21642  -0.19468  -0.18691  -0.11924
 Alpha  occ. eigenvalues --   -0.10857  -0.09111  -0.07194  -0.05960  -0.03065
 Alpha virt. eigenvalues --    0.18243   0.18543   0.20584   0.22588   0.22760
 Alpha virt. eigenvalues --    0.22855   0.23141   0.23598   0.23989   0.25746
 Alpha virt. eigenvalues --    0.26055   0.27587   0.27932   0.28702   0.29228

 Mulliken charges:
               1
     1  O   -0.363997
     2  N   -0.269671
     3  N   -0.333553
     4  C    0.173664
     5  C    0.380880
     6  C   -0.030732
     7  C   -0.119665
     8  C    0.166470
     9  C    0.158080
    10  H   -0.055551
    11  H   -0.045275
    12  H   -0.061548
    13  H   -0.022279
    14  H   -0.047929
    15  H   -0.044106
    16  H    0.014355
    17  H   -0.038402
    18  H   -0.030974
    19  H   -0.044067
    20  O   -0.381978
    21  N   -0.345743
    22  C    0.172125
    23  C    0.383394
    24  C   -0.035927
    25  C   -0.122493
    26  C    0.164955
    27  C    0.179092
    28  H   -0.056724
    29  H   -0.049668
    30  H   -0.062072
    31  H   -0.027657
    32  H   -0.051252
    33  H   -0.040897
    34  H    0.013890
    35  H   -0.041547
    36  H   -0.034799
    37  H   -0.048397
 Sum of Mulliken charges =  -1.00000

 Dipole moment (field-independent basis, Debye):
    X=              0.3320    Y=             -3.6126    Z=              0.1146  Tot=              3.6297
 Quadrupole moment (field-independent basis, Debye-Ang):
   XX=           -118.5394   YY=           -122.3894   ZZ=           -104.4744
   XY=              0.3835   XZ=              1.9689   YZ=             -0.3687

  Exact polarizability:     197.896      -0.493     126.670      12.944       0.033     115.869
 Approx polarizability:     220.758      -0.415     200.722      18.923       1.630     158.782

 Summary of Natural Population Analysis:

                                       Natural Population
                Natural  -----------------------------------------------
    Atom  No    Charge         Core      Valence    Rydberg      Total
 -----------------------------------------------------------------------
      O    1   -0.58490      1.99967     6.57468    0.01055     8.58490
      N    2   -0.73817      1.99908     5.72005    0.01904     7.73817
      N    3   -0.67736      1.99933     5.66081    0.01721     7.67736
      C    4    0.76022      1.99909     3.19359    0.04711     5.23978
      C    5   -0.02979      1.99890     4.01105    0.01985     6.02979
      C    6   -0.04505      1.99901     4.02186    0.02419     6.04505
      C    7   -0.19469      1.99905     4.17962    0.01602     6.19469
      C    8   -0.57216      1.99919     4.56178    0.01118     6.57216
      C    9   -0.56949      1.99920     4.55951    0.01078     6.56949
      H   10    0.15331      0.00000     0.84268    0.00400     0.84669
      H   11    0.15637      0.00000     0.83973    0.00390     0.84363
      H   12    0.17552      0.00000     0.81970    0.00478     0.82448
      H   13    0.19686      0.00000     0.79637    0.00677     0.80314
      H   14    0.17737      0.00000     0.81976    0.00287     0.82263
      H   15    0.17899      0.00000     0.81800    0.00301     0.82101
      H   16    0.21388      0.00000     0.78227    0.00385     0.78612
      H   17    0.18188      0.00000     0.81502    0.00310     0.81812
      H   18    0.18388      0.00000     0.81297    0.00316     0.81612
      H   19    0.17634      0.00000     0.82027    0.00339     0.82366
      O   20   -0.59492      1.99968     6.58488    0.01036     8.59492
      N   21   -0.68578      1.99933     5.66954    0.01691     7.68578
      C   22    0.75958      1.99906     3.19480    0.04656     5.24042
      C   23   -0.02876      1.99891     4.00989    0.01996     6.02876
      C   24   -0.04390      1.99900     4.02101    0.02389     6.04390
      C   25   -0.19588      1.99904     4.18091    0.01592     6.19588
      C   26   -0.57029      1.99919     4.55970    0.01140     6.57029
      C   27   -0.56975      1.99919     4.55974    0.01082     6.56975
      H   28    0.15070      0.00000     0.84529    0.00401     0.84930
      H   29    0.15466      0.00000     0.84140    0.00394     0.84534
      H   30    0.17382      0.00000     0.82136    0.00482     0.82618
      H   31    0.19447      0.00000     0.79881    0.00672     0.80553
      H   32    0.17455      0.00000     0.82259    0.00287     0.82545
      H   33    0.18035      0.00000     0.81664    0.00301     0.81965
      H   34    0.21492      0.00000     0.78080    0.00428     0.78508
      H   35    0.18232      0.00000     0.81444    0.00324     0.81768
      H   36    0.18373      0.00000     0.81288    0.00339     0.81627
      H   37    0.17717      0.00000     0.81931    0.00352     0.82283
 =======================================================================
   * Total *   -1.00000     33.98594    95.60371    0.41036   130.00000

 ******   22 imaginary frequencies (negative Signs) ******

                      1                      2                      3
                      A                      A                      A
 Frequencies --  -1229.8627             -1227.8169             -1223.7947
 Red. masses --      1.0082                 1.0094                 1.0087
 Frc consts  --      0.8985                 0.8965                 0.8901
 IR Inten    --      0.0312                 0.0259                 0.0003

                      4                      5                      6
                      A                      A                      A
 Frequencies --  -1219.6436              -874.1192              -870.7151
 Red. masses --      1.0141                 1.0792                 1.0800
 Frc consts  --      0.8888                 0.4858                 0.4824
 IR Inten    --      0.1378                 4.5431                 5.7388

                      7                      8                      9
                      A                      A                      A
 Frequencies --   -845.9343              -838.3529              -821.8965
 Red. masses --      1.0846                 1.0929                 1.0460
 Frc consts  --      0.4573                 0.4525                 0.4163
 IR Inten    --      4.0121                 4.9761                 4.8439

                     10                     11                     12
                      A                      A                      A
 Frequencies --   -818.4631              -811.8929              -811.2507
 Red. masses --      1.0600                 1.0699                 1.0738
 Frc consts  --      0.4184                 0.4155                 0.4164
 IR Inten    --     11.2715                14.1849                 3.6166

                     13                     14                     15
                      A                      A                      A
 Frequencies --   -779.6910              -765.4920              -322.4468
 Red. masses --      1.0208                 1.0409                 2.7002
 Frc consts  --      0.3656                 0.3594                 0.1654
 IR Inten    --      0.3113                 0.7940                 0.0677

                     16                     17                     18
                      A                      A                      A
 Frequencies --   -292.4915              -231.5071              -221.4553
 Red. masses --      2.3468                 2.4256                 2.7227
 Frc consts  --      0.1183                 0.0766                 0.0787
 IR Inten    --      0.2048                12.0573                 4.2096

                     19                     20                     21
                      A                      A                      A
 Frequencies --   -182.1780              -160.1585              -145.0737
 Red. masses --      2.4593                 2.8877                 3.3675
 Frc consts  --      0.0481                 0.0436                 0.0418
 IR Inten    --      0.0545                 4.8638                 1.9470

                     22                     23                     24
                      A                      A                      A
 Frequencies --    -36.3098               167.0706               244.4887
 Red. masses --      4.7358                 4.2506                 5.2684
 Frc consts  --      0.0037                 0.0699                 0.1855
 IR Inten    --      1.6956                 4.5218                 2.5818

                     25                     26                     27
                      A                      A                      A
 Frequencies --    281.1610               325.7589               331.7695
 Red. masses --      2.8974                 2.8178                 4.3179
 Frc consts  --      0.1349                 0.1762                 0.2800
 IR Inten    --      0.8538                14.6828                 5.3980

                     28                     29                     30
                      A                      A                      A
 Frequencies --    384.3606               413.9370               488.1314
 Red. masses --      3.2830                 3.7520                 3.4415
 Frc consts  --      0.2858                 0.3788                 0.4831
 IR Inten    --      2.7436                 5.7886                 0.2351

                     31                     32                     33
                      A                      A                      A
 Frequencies --    501.6219               547.6094               556.0945
 Red. masses --      3.9840                 1.6119                 1.5978
 Frc consts  --      0.5906                 0.2848                 0.2911
 IR Inten    --      2.9611                30.7409                48.4876

                     34                     35                     36
                      A                      A                      A
 Frequencies --    671.5665               675.3332               683.9677
 Red. masses --      1.4955                 1.4166                 1.7162
 Frc consts  --      0.3974                 0.3806                 0.4730
 IR Inten    --      6.5715                 8.9313                10.5341

                     37                     38                     39
                      A                      A                      A
 Frequencies --    698.5351               704.2644               715.3162
 Red. masses --      1.3392                 3.5107                 1.5445
 Frc consts  --      0.3850                 1.0259                 0.4656
 IR Inten    --     19.0541                 7.0263                20.2974

                     40                     41                     42
                      A                      A                      A
 Frequencies --    729.0031               735.1976               737.1029
 Red. masses --      4.2062                 1.6148                 1.2740
 Frc consts  --      1.3170                 0.5143                 0.4078
 IR Inten    --      1.4817                22.1803                 8.3680

                     43                     44                     45
                      A                      A                      A
 Frequencies --    745.6239               758.0917               775.6269
 Red. masses --      1.7052                 3.3119                 2.3271
 Frc consts  --      0.5585                 1.1214                 0.8248
 IR Inten    --      7.3433                16.2982                 5.1545

                     46                     47                     48
                      A                      A                      A
 Frequencies --    783.8541               794.2363               810.3580
 Red. masses --      2.0398                 2.7933                 2.4632
 Frc consts  --      0.7384                 1.0382                 0.9530
 IR Inten    --      1.1870                14.0698                15.8398

                     49                     50                     51
                      A                      A                      A
 Frequencies --    814.4393               858.8273               860.8503
 Red. masses --      2.3195                 2.6373                 3.8491
 Frc consts  --      0.9065                 1.1461                 1.6806
 IR Inten    --      9.2119                 3.1532                 8.8739

                     52                     53                     54
                      A                      A                      A
 Frequencies --    861.8884               876.4528               939.3268
 Red. masses --      2.7165                 4.4983                 1.6350
 Frc consts  --      1.1890                 2.0359                 0.8500
 IR Inten    --      0.8506                15.1372                 3.4641

                     55                     56                     57
                      A                      A                      A
 Frequencies --    951.0716               955.0351               964.2185
 Red. masses --      1.4048                 2.5965                 2.2678
 Frc consts  --      0.7487                 1.3953                 1.2422
 IR Inten    --      2.8064                21.6018                 1.7260

                     58                     59                     60
                      A                      A                      A
 Frequencies --    969.8695               981.9016              1008.6487
 Red. masses --      4.8178                 3.7156                 2.8044
 Frc consts  --      2.6701                 2.1107                 1.6810
 IR Inten    --     15.9033                17.3418                32.4526

                     61                     62                     63
                      A                      A                      A
 Frequencies --   1019.9825              1056.4186              1067.0832
 Red. masses --      2.7199                 4.4835                 4.8288
 Frc consts  --      1.6672                 2.9481                 3.2396
 IR Inten    --     25.8382                 3.4618                 6.4178

                     64                     65                     66
                      A                      A                      A
 Frequencies --   1085.8142              1093.8142              1099.2230
 Red. masses --      1.4703                 1.1714                 1.1593
 Frc consts  --      1.0213                 0.8257                 0.8253
 IR Inten    --      1.0100                10.8773                 4.6409

                     67                     68                     69
                      A                      A                      A
 Frequencies --   1101.1568              1117.3767              1122.1551
 Red. masses --      1.2277                 1.9442                 1.2047
 Frc consts  --      0.8771                 1.4302                 0.8938
 IR Inten    --      4.2107                51.3493                50.0211

                     70                     71                     72
                      A                      A                      A
 Frequencies --   1127.3674              1137.1288              1155.2528
 Red. masses --      1.2636                 2.2129                 1.5665
 Frc consts  --      0.9462                 1.6859                 1.2318
 IR Inten    --     81.1372                62.6332                 4.0820

                     73                     74                     75
                      A                      A                      A
 Frequencies --   1157.9116              1188.6230              1190.1642
 Red. masses --      1.6491                 1.3246                 1.6199
 Frc consts  --      1.3027                 1.1026                 1.3520
 IR Inten    --     14.4097                 8.6720                 5.2475

                     76                     77                     78
                      A                      A                      A
 Frequencies --   1207.4900              1212.0733              1255.7957
 Red. masses --      1.6676                 2.1344                 4.1249
 Frc consts  --      1.4326                 1.8475                 3.8327
 IR Inten    --     85.8775                65.9166                 6.0345

                     79                     80                     81
                      A                      A                      A
 Frequencies --   1289.1782              1302.5410              1309.3378
 Red. masses --      5.1323                 4.3322                 4.3073
 Frc consts  --      5.0256                 4.3305                 4.3507
 IR Inten    --      1.4023                 4.8047                 3.5473

                     82                     83                     84
                      A                      A                      A
 Frequencies --   1423.8957              1481.9794              1660.6953
 Red. masses --      9.5880                10.6749                12.1060
 Frc consts  --     11.4534                13.8133                19.6713
 IR Inten    --    134.8386               194.5005              1280.6034

                     85                     86                     87
                      A                      A                      A
 Frequencies --   1731.9295              4101.7684              4107.0599
 Red. masses --     12.3053                 1.0875                 1.0874
 Frc consts  --     21.7472                10.7803                10.8064
 IR Inten    --   1182.6067                53.6002                48.6856

                     88                     89                     90
                      A                      A                      A
 Frequencies --   4124.9056              4127.6869              4180.1130
 Red. masses --      1.0871                 1.0871                 1.0588
 Frc consts  --     10.8982                10.9131                10.9000
 IR Inten    --     20.0766                14.9840                71.6421

                     91                     92                     93
                      A                      A                      A
 Frequencies --   4186.9559              4226.0734              4228.4049
 Red. masses --      1.0582                 1.0318                 1.0326
 Frc consts  --     10.9297                10.8568                10.8777
 IR Inten    --     57.8577                22.6428                27.4560

                     94                     95                     96
                      A                      A                      A
 Frequencies --   4229.5073              4230.8188              4292.8704
 Red. masses --      1.0322                 1.0324                 1.1108
 Frc consts  --     10.8787                10.8883                12.0614
 IR Inten    --     18.6147                31.8363                28.7350

                     97                     98                     99
                      A                      A                      A
 Frequencies --   4298.5538              4412.1563              4412.6475
 Red. masses --      1.1116                 1.1064                 1.1063
 Frc consts  --     12.1021                12.6900                12.6923
 IR Inten    --     26.4231                 3.6604                23.7118

                    100                    101                    102
                      A                      A                      A
 Frequencies --   4416.4467              4417.0179              4421.8712
 Red. masses --      1.1064                 1.1062                 1.1066
 Frc consts  --     12.7142                12.7160                12.7482
 IR Inten    --      5.8478                23.2855                12.9737

                    103                    104                    105
                      A                      A                      A
 Frequencies --   4422.7128              4423.4313              4426.6905
 Red. masses --      1.1060                 1.1064                 1.1066
 Frc consts  --     12.7468                12.7545                12.7766
 IR Inten    --     13.6153                 4.8670                 5.6551

 - Thermochemistry -
 -------------------
 Temperature   298.150 Kelvin.  Pressure   1.00000 Atm.
 Atom     1 has atomic number  8 and mass  15.99491

 Molecular mass:   238.15555 amu.
 Principal axes and moments of inertia in atomic units:
                           1         2         3
     Eigenvalues --  1789.806658125.546108686.26338
           X            0.99998   0.00014  -0.00703
           Y           -0.00018   0.99998  -0.00559
           Z            0.00703   0.00560   0.99996
 This molecule is an asymmetric top.
 Rotational symmetry number  1.
 Warning -- assumption of classical behavior for rotation
           may cause significant error
 Rotational temperatures (Kelvin)      0.04839     0.01066     0.00997
 Rotational constants (GHZ):           1.00834     0.22211     0.20777
   22 imaginary frequencies ignored.
 Zero-point vibrational energy     852845.8 (Joules/Mol)
                                  203.83505 (Kcal/Mol)
 Warning -- explicit consideration of  11 degrees of freedom as
           vibrations may cause significant error
 Vibrational temperatures:    240.38   351.76   404.53   468.69   477.34
          (Kelvin)            553.01   595.56   702.31   721.72   787.89
                              800.10   966.23   971.65   984.08  1005.04
                             1013.28  1029.18  1048.87  1057.79  1060.53
                             1072.79  1090.72  1115.95  1127.79  1142.73
                             1165.92  1171.80  1235.66  1238.57  1240.07
                             1261.02  1351.48  1368.38  1374.08  1387.30
                             1395.43  1412.74  1451.22  1467.53  1519.95
                             1535.29  1562.24  1573.75  1581.54  1584.32
                             1607.66  1614.53  1622.03  1636.07  1662.15
                             1665.98  1710.16  1712.38  1737.31  1743.90
                             1806.81  1854.84  1874.07  1883.85  2048.67
                             2132.24  2389.37  2491.86  5901.53  5909.14
                             5934.82  5938.82  6014.25  6024.10  6080.38
                             6083.73  6085.32  6087.20  6176.48  6184.66
                             6348.11  6348.82  6354.28  6355.10  6362.09
                             6363.30  6364.33  6369.02

 Zero-point correction=                           0.324832 (Hartree/Particle)
 Thermal correction to Energy=                    0.334019
 Thermal correction to Enthalpy=                  0.334964
 Thermal correction to Gibbs Free Energy=         0.289851
 Sum of electronic and zero-point Energies=           -782.076593
 Sum of electronic and thermal Energies=              -782.067406
 Sum of electronic and thermal Enthalpies=            -782.066462
 Sum of electronic and thermal Free Energies=         -782.111574

                     E (Thermal)             CV                S
                      KCal/Mol        Cal/Mol-Kelvin    Cal/Mol-Kelvin
 Total                  209.600             44.851             94.948
 Electronic               0.000              0.000              0.000
 Translational            0.889              2.981             42.305
 Rotational               0.889              2.981             33.201
 Vibrational            207.823             38.890             19.442
 Vibration     1          0.624              1.883              2.468
 Vibration     2          0.660              1.772              1.770
 Vibration     3          0.681              1.708              1.527
 Vibration     4          0.710              1.624              1.281
 Vibration     5          0.714              1.612              1.251
 Vibration     6          0.753              1.504              1.022
 Vibration     7          0.778              1.440              0.913
 Vibration     8          0.844              1.276              0.688
 Vibration     9          0.857              1.246              0.654
 Vibration    10          0.903              1.145              0.549
 Vibration    11          0.912              1.126              0.532

 Normal termination of Gaussian 16 at Mon Mar  6 11:17:24 2023.
