 Gaussian 16, Revision C.01,
 Gaussian 16:  ES64L-G16RevC.01  3-Jul-2019

 ----------------------------------------------------------------------
 #p pop=(regular,nbo,savenbos) freq=noraman def2svp empiricaldispersion
 =gd3bj output=wfx pbe1pbe
 ----------------------------------------------------------------------

 ----------------------------------------
 SAYNEN_Complex_4_Ligand_1_NN_Cu_oriented
 ----------------------------------------
 Symbolic Z-matrix:
 Charge = -1 Multiplicity = 1

                         Standard orientation:
 ---------------------------------------------------------------------
 Center     Atomic      Atomic             Coordinates (Angstroms)
 Number     Number       Type             X           Y           Z
 ---------------------------------------------------------------------
      1          8           0        2.079597    1.586041    0.876302
      2          8           0       -2.172338    1.706684   -0.583070
      3          7           0        1.293481   -0.431127    0.321964
      4          7           0       -0.028483    1.556449    0.103893
      5          7           0       -1.315615   -0.370427   -0.554415
      6          6           0        1.047260    0.838228    0.412672
      7          6           0       -1.113691    0.904324   -0.333732
      8          6           0       -3.183899    0.862872   -1.183574
      9          6           0       -2.755403   -0.550474   -0.808345
     10          6           0       -3.484383   -1.161466    0.389342
     11          6           0       -3.339174   -0.346484    1.645505
     12          6           0       -4.953352   -1.422619    0.057698
     13          1           0       -4.080120    1.069544   -0.819853
     14          1           0       -3.202345    0.976834   -2.167439
     15          1           0       -2.874790   -1.148692   -1.599352
     16          1           0       -3.061833   -2.050632    0.567329
     17          1           0       -3.814317   -0.791142    2.378916
     18          1           0       -3.720019    0.545543    1.502415
     19          1           0       -2.390479   -0.263406    1.874494
     20          1           0       -5.395321   -1.826133    0.833263
     21          1           0       -5.011653   -2.032203   -0.706823
     22          1           0       -5.393502   -0.575663   -0.164794
     23          6           0        3.088906    0.673720    1.297657
     24          6           0        2.722268   -0.665167    0.653560
     25          6           0        3.541611   -1.050568   -0.563584
     26          6           0        4.967457   -1.428194   -0.121919
     27          6           0        3.555826    0.008099   -1.632450
     28          1           0        3.982505    0.974300    0.990421
     29          1           0        3.100896    0.595435    2.284546
     30          1           0        2.787529   -1.390843    1.340906
     31          1           0        3.124702   -1.868490   -0.958636
     32          1           0        5.497398   -1.675905   -0.906382
     33          1           0        4.925598   -2.188309    0.497096
     34          1           0        5.384149   -0.663389    0.326691
     35          1           0        4.094252   -0.300792   -2.392255
     36          1           0        3.943645    0.832206   -1.271425
     37          1           0        2.639386    0.182027   -1.932059
 ---------------------------------------------------------------------

 SCF Done:  E(RPBE1PBE) =  -782.402305784     A.U. after   14 cycles

 The electronic state is 1-A.
 Alpha  occ. eigenvalues --  -19.06998 -19.06603 -14.16124 -14.16078 -14.16043
 Alpha  occ. eigenvalues --  -10.14635 -10.14393 -10.11893 -10.11636 -10.09477
 Alpha  occ. eigenvalues --  -10.09386 -10.08954 -10.08779 -10.08013 -10.07895
 Alpha  occ. eigenvalues --  -10.05911 -10.05585  -0.94221  -0.93732  -0.75521
 Alpha  occ. eigenvalues --   -0.73759  -0.73494  -0.69233  -0.68434  -0.63187
 Alpha  occ. eigenvalues --   -0.61476  -0.61272  -0.59929  -0.53401  -0.53001
 Alpha  occ. eigenvalues --   -0.46697  -0.45516  -0.44586  -0.40013  -0.39985
 Alpha  occ. eigenvalues --   -0.38620  -0.36173  -0.35274  -0.34413  -0.34143
 Alpha  occ. eigenvalues --   -0.33788  -0.32793  -0.32545  -0.32386  -0.30746
 Alpha  occ. eigenvalues --   -0.30503  -0.28516  -0.28435  -0.27096  -0.25430
 Alpha  occ. eigenvalues --   -0.24490  -0.24134  -0.22906  -0.22750  -0.22461
 Alpha  occ. eigenvalues --   -0.22019  -0.21765  -0.19248  -0.19055  -0.11922
 Alpha  occ. eigenvalues --   -0.10902  -0.09050  -0.07286  -0.06111  -0.03086
 Alpha virt. eigenvalues --    0.18354   0.18477   0.20522   0.22755   0.22790
 Alpha virt. eigenvalues --    0.22913   0.23213   0.23756   0.24042   0.25901
 Alpha virt. eigenvalues --    0.25986   0.27701   0.27907   0.28672   0.29010

 Mulliken charges:
               1
     1  O   -0.365981
     2  O   -0.368138
     3  N   -0.335099
     4  N   -0.282570
     5  N   -0.342017
     6  C    0.168130
     7  C    0.176131
     8  C    0.378760
     9  C   -0.031239
    10  C   -0.117390
    11  C    0.169651
    12  C    0.158915
    13  H   -0.059792
    14  H   -0.041809
    15  H   -0.066674
    16  H   -0.026130
    17  H   -0.051424
    18  H   -0.039112
    19  H    0.017076
    20  H   -0.038525
    21  H   -0.032988
    22  H   -0.042882
    23  C    0.375446
    24  C   -0.031145
    25  C   -0.114903
    26  C    0.154776
    27  C    0.168838
    28  H   -0.058257
    29  H   -0.047706
    30  H   -0.061244
    31  H   -0.025193
    32  H   -0.038998
    33  H   -0.030827
    34  H   -0.042808
    35  H   -0.049121
    36  H   -0.040856
    37  H    0.015104
 Sum of Mulliken charges =  -1.00000

 Dipole moment (field-independent basis, Debye):
    X=              0.0415    Y=             -3.1527    Z=             -0.0727  Tot=              3.1538
 Quadrupole moment (field-independent basis, Debye-Ang):
   XX=           -118.6773   YY=           -121.2393   ZZ=           -104.5447
   XY=             -0.0618   XZ=              1.9316   YZ=             -1.7707

  Exact polarizability:     199.878      -1.301     123.573      13.113       0.126     117.604
 Approx polarizability:     221.639      -2.247     198.968      19.920       4.195     160.855

 Summary of Natural Population Analysis:

                                       Natural Population
                Natural  -----------------------------------------------
    Atom  No    Charge         Core      Valence    Rydberg      Total
 -----------------------------------------------------------------------
      O    1   -0.58968      1.99967     6.57933    0.01068     8.58968
      O    2   -0.58880      1.99968     6.57874    0.01039     8.58880
      N    3   -0.67853      1.99932     5.66205    0.01716     7.67853
      N    4   -0.74026      1.99910     5.72238    0.01878     7.74026
      N    5   -0.68261      1.99934     5.66627    0.01700     7.68261
      C    6    0.75766      1.99906     3.19612    0.04716     5.24234
      C    7    0.75858      1.99909     3.19448    0.04785     5.24142
      C    8   -0.03075      1.99889     4.01175    0.02011     6.03075
      C    9   -0.04478      1.99900     4.02119    0.02459     6.04478
      C   10   -0.19673      1.99906     4.18149    0.01618     6.19673
      C   11   -0.57224      1.99919     4.56193    0.01112     6.57224
      C   12   -0.56902      1.99920     4.55917    0.01065     6.56902
      H   13    0.15365      0.00000     0.84243    0.00392     0.84635
      H   14    0.15693      0.00000     0.83904    0.00403     0.84307
      H   15    0.17636      0.00000     0.81897    0.00467     0.82364
      H   16    0.19327      0.00000     0.80012    0.00661     0.80673
      H   17    0.17534      0.00000     0.82174    0.00292     0.82466
      H   18    0.18294      0.00000     0.81367    0.00339     0.81706
      H   19    0.21521      0.00000     0.78103    0.00376     0.78479
      H   20    0.18259      0.00000     0.81431    0.00311     0.81741
      H   21    0.18258      0.00000     0.81419    0.00323     0.81742
      H   22    0.17721      0.00000     0.81944    0.00336     0.82279
      C   23   -0.02974      1.99892     4.01018    0.02065     6.02974
      C   24   -0.04621      1.99900     4.02313    0.02408     6.04621
      C   25   -0.19597      1.99905     4.18103    0.01589     6.19597
      C   26   -0.56848      1.99920     4.55852    0.01076     6.56848
      C   27   -0.57178      1.99919     4.56133    0.01126     6.57178
      H   28    0.15270      0.00000     0.84332    0.00398     0.84730
      H   29    0.15485      0.00000     0.84111    0.00405     0.84515
      H   30    0.17676      0.00000     0.81860    0.00464     0.82324
      H   31    0.19443      0.00000     0.79886    0.00671     0.80557
      H   32    0.18154      0.00000     0.81541    0.00305     0.81846
      H   33    0.18359      0.00000     0.81325    0.00316     0.81641
      H   34    0.17748      0.00000     0.81919    0.00333     0.82252
      H   35    0.17653      0.00000     0.82059    0.00288     0.82347
      H   36    0.18151      0.00000     0.81539    0.00310     0.81849
      H   37    0.21390      0.00000     0.78236    0.00374     0.78610
 =======================================================================
   * Total *   -1.00000     33.98594    95.60208    0.41198   130.00000

 ******   21 imaginary frequencies (negative Signs) ******

                      1                      2                      3
                      A                      A                      A
 Frequencies --  -1233.5834             -1229.2102             -1224.8348
 Red. masses --      1.0080                 1.0115                 1.0090
 Frc consts  --      0.9037                 0.9005                 0.8919
 IR Inten    --      0.0034                 0.0104                 0.0162

                      4                      5                      6
                      A                      A                      A
 Frequencies --  -1222.0143              -871.5988              -867.6663
 Red. masses --      1.0124                 1.0778                 1.0872
 Frc consts  --      0.8907                 0.4824                 0.4822
 IR Inten    --      0.0696                 5.4505                 7.7227

                      7                      8                      9
                      A                      A                      A
 Frequencies --   -847.7408              -845.8429              -828.2836
 Red. masses --      1.0719                 1.0843                 1.0472
 Frc consts  --      0.4539                 0.4571                 0.4233
 IR Inten    --      3.4746                 3.6380                 2.1614

                     10                     11                     12
                      A                      A                      A
 Frequencies --   -826.6420              -815.8543              -814.0587
 Red. masses --      1.0611                 1.0675                 1.0649
 Frc consts  --      0.4272                 0.4186                 0.4158
 IR Inten    --      0.4201                22.1054                 9.8791

                     13                     14                     15
                      A                      A                      A
 Frequencies --   -780.7850              -766.0972              -321.4580
 Red. masses --      1.0239                 1.0448                 2.5320
 Frc consts  --      0.3678                 0.3613                 0.1542
 IR Inten    --      0.2505                 1.4307                 0.6056

                     16                     17                     18
                      A                      A                      A
 Frequencies --   -290.2913              -230.1330              -212.1358
 Red. masses --      2.4323                 2.4600                 2.5065
 Frc consts  --      0.1208                 0.0768                 0.0665
 IR Inten    --      0.3519                10.7776                 2.8890

                     19                     20                     21
                      A                      A                      A
 Frequencies --   -184.5518              -148.6896              -142.8647
 Red. masses --      2.3953                 3.3285                 3.5145
 Frc consts  --      0.0481                 0.0434                 0.0423
 IR Inten    --      0.4835                 5.9690                 3.6127

                     22                     23                     24
                      A                      A                      A
 Frequencies --      5.7958               181.6713               237.3180
 Red. masses --      4.9547                 4.1314                 5.6420
 Frc consts  --      0.0001                 0.0803                 0.1872
 IR Inten    --      1.0049                 5.3296                 1.2900

                     25                     26                     27
                      A                      A                      A
 Frequencies --    290.7625               332.1071               335.2855
 Red. masses --      2.8072                 2.7305                 4.1708
 Frc consts  --      0.1398                 0.1774                 0.2762
 IR Inten    --      0.2226                16.8567                 4.2560

                     28                     29                     30
                      A                      A                      A
 Frequencies --    384.3846               412.0880               478.8249
 Red. masses --      3.4099                 3.8475                 2.1401
 Frc consts  --      0.2968                 0.3850                 0.2891
 IR Inten    --      4.1116                 4.6467                 5.3526

                     31                     32                     33
                      A                      A                      A
 Frequencies --    496.3641               504.9764               555.1261
 Red. masses --      4.2288                 2.2195                 1.5121
 Frc consts  --      0.6139                 0.3335                 0.2746
 IR Inten    --      2.6774                16.2836                30.1396

                     34                     35                     36
                      A                      A                      A
 Frequencies --    659.3547               666.5304               676.8689
 Red. masses --      1.2000                 1.1497                 2.0479
 Frc consts  --      0.3074                 0.3009                 0.5528
 IR Inten    --     18.9928                19.0638                 1.9408

                     37                     38                     39
                      A                      A                      A
 Frequencies --    680.3111               698.2082               705.3685
 Red. masses --      1.7002                 3.2211                 3.3553
 Frc consts  --      0.4636                 0.9252                 0.9836
 IR Inten    --     15.2724                 8.8255                 7.4843

                     40                     41                     42
                      A                      A                      A
 Frequencies --    727.8503               736.3379               738.3901
 Red. masses --      3.5003                 1.2195                 1.2238
 Frc consts  --      1.0925                 0.3896                 0.3931
 IR Inten    --      2.9648                15.4826                11.9748

                     43                     44                     45
                      A                      A                      A
 Frequencies --    746.1564               760.1925               778.8075
 Red. masses --      1.8425                 3.7633                 2.0412
 Frc consts  --      0.6044                 1.2813                 0.7294
 IR Inten    --      9.1552                24.3362                 9.3493

                     46                     47                     48
                      A                      A                      A
 Frequencies --    790.0330               794.7872               806.5095
 Red. masses --      2.0676                 2.3239                 3.1631
 Frc consts  --      0.7603                 0.8649                 1.2122
 IR Inten    --      1.1111                 3.7843                18.7306

                     49                     50                     51
                      A                      A                      A
 Frequencies --    821.2717               860.8744               864.6819
 Red. masses --      2.2974                 2.8168                 2.6879
 Frc consts  --      0.9130                 1.2299                 1.1841
 IR Inten    --     18.8353                 2.6579                 1.6535

                     52                     53                     54
                      A                      A                      A
 Frequencies --    865.2691               875.4805               928.0191
 Red. masses --      3.4095                 4.0379                 1.6041
 Frc consts  --      1.5040                 1.8235                 0.8139
 IR Inten    --      2.4289                11.0837                 1.8400

                     55                     56                     57
                      A                      A                      A
 Frequencies --    938.8044               951.3656               962.4415
 Red. masses --      1.6263                 2.7219                 2.3817
 Frc consts  --      0.8445                 1.4515                 1.2998
 IR Inten    --      2.5832                25.7935                 4.3980

                     58                     59                     60
                      A                      A                      A
 Frequencies --    977.8382               979.5805               999.8419
 Red. masses --      4.8524                 3.2286                 2.6423
 Frc consts  --      2.7336                 1.8254                 1.5563
 IR Inten    --     20.7634                19.3409                30.9233

                     61                     62                     63
                      A                      A                      A
 Frequencies --   1008.2876              1039.8666              1080.3717
 Red. masses --      2.8397                 4.5125                 1.7727
 Frc consts  --      1.7010                 2.8749                 1.2191
 IR Inten    --     27.6127                 5.1467                 1.4978

                     64                     65                     66
                      A                      A                      A
 Frequencies --   1084.6279              1085.7213              1097.3484
 Red. masses --      2.4481                 1.6997                 1.1868
 Frc consts  --      1.6969                 1.1805                 0.8420
 IR Inten    --      5.3533                 2.8628                 4.9381

                     67                     68                     69
                      A                      A                      A
 Frequencies --   1098.4724              1115.0722              1118.3242
 Red. masses --      1.1554                 1.3235                 1.0562
 Frc consts  --      0.8214                 0.9696                 0.7783
 IR Inten    --      4.8899                 1.9814                 1.3170

                     70                     71                     72
                      A                      A                      A
 Frequencies --   1128.6263              1133.6145              1152.5109
 Red. masses --      1.9401                 2.1495                 1.4672
 Frc consts  --      1.4561                 1.6275                 1.1482
 IR Inten    --     70.6171               143.5597                19.1337

                     73                     74                     75
                      A                      A                      A
 Frequencies --   1154.5800              1182.7773              1185.7185
 Red. masses --      1.8338                 1.6554                 1.3652
 Frc consts  --      1.4403                 1.3645                 1.1309
 IR Inten    --      9.9695                 2.3036                18.8358

                     76                     77                     78
                      A                      A                      A
 Frequencies --   1192.2950              1213.1662              1249.7177
 Red. masses --      1.6889                 1.8352                 3.8555
 Frc consts  --      1.4146                 1.5914                 3.5478
 IR Inten    --      7.0888               146.8019                13.1488

                     79                     80                     81
                      A                      A                      A
 Frequencies --   1252.5620              1297.6982              1312.4686
 Red. masses --      4.0691                 4.2763                 4.6247
 Frc consts  --      3.7613                 4.2429                 4.6937
 IR Inten    --      3.9054                 3.2439                 5.0663

                     82                     83                     84
                      A                      A                      A
 Frequencies --   1429.7247              1483.8533              1652.0425
 Red. masses --      9.5862                10.7250                12.2044
 Frc consts  --     11.5453                13.9133                19.6249
 IR Inten    --    113.4171               277.7945              1554.8448

                     85                     86                     87
                      A                      A                      A
 Frequencies --   1719.5521              4089.0672              4115.8266
 Red. masses --     12.1301                 1.0876                 1.0868
 Frc consts  --     21.1322                10.7141                10.8469
 IR Inten    --    822.3887                50.5794                18.5580

                     88                     89                     90
                      A                      A                      A
 Frequencies --   4122.2363              4131.8244              4170.0721
 Red. masses --      1.0876                 1.0871                 1.0583
 Frc consts  --     10.8892                10.9348                10.8433
 IR Inten    --     50.1558                16.6928                68.7114

                     91                     92                     93
                      A                      A                      A
 Frequencies --   4185.3208              4230.2512              4230.8706
 Red. masses --      1.0585                 1.0327                 1.0326
 Frc consts  --     10.9241                10.8887                10.8906
 IR Inten    --     59.4014                20.4015                17.6575

                     94                     95                     96
                      A                      A                      A
 Frequencies --   4233.1854              4233.8001              4280.5815
 Red. masses --      1.0319                 1.0317                 1.1112
 Frc consts  --     10.8949                10.8963                11.9961
 IR Inten    --     32.1900                27.1837                30.0062

                     97                     98                     99
                      A                      A                      A
 Frequencies --   4299.7003              4410.4557              4411.6882
 Red. masses --      1.1112                 1.1059                 1.1062
 Frc consts  --     12.1038                12.6742                12.6851
 IR Inten    --     26.8998                14.4580                15.0687

                    100                    101                    102
                      A                      A                      A
 Frequencies --   4417.4561              4423.6027              4426.9003
 Red. masses --      1.1063                 1.1064                 1.1067
 Frc consts  --     12.7197                12.7559                12.7787
 IR Inten    --     12.1372                14.5846                13.6503

                    103                    104                    105
                      A                      A                      A
 Frequencies --   4432.7844              4432.8663              4434.4836
 Red. masses --      1.1064                 1.1065                 1.1066
 Frc consts  --     12.8087                12.8111                12.8213
 IR Inten    --      0.9313                 1.9151                15.5988

 - Thermochemistry -
 -------------------
 Temperature   298.150 Kelvin.  Pressure   1.00000 Atm.
 Atom     1 has atomic number  8 and mass  15.99491

 Molecular mass:   238.15555 amu.
 Principal axes and moments of inertia in atomic units:
                           1         2         3
     Eigenvalues --  1670.409758316.191588632.85230
           X            0.99997   0.00077  -0.00763
           Y           -0.00095   0.99973  -0.02337
           Z            0.00761   0.02337   0.99970
 This molecule is an asymmetric top.
 Rotational symmetry number  1.
 Warning -- assumption of classical behavior for rotation
           may cause significant error
 Rotational temperatures (Kelvin)      0.05185     0.01042     0.01003
 Rotational constants (GHZ):           1.08042     0.21702     0.20906
   21 imaginary frequencies ignored.
 Zero-point vibrational energy     851668.5 (Joules/Mol)
                                  203.55366 (Kcal/Mol)
 Warning -- explicit consideration of  12 degrees of freedom as
           vibrations may cause significant error
 Vibrational temperatures:      8.34   261.38   341.45   418.34   477.83
          (Kelvin)            482.40   553.04   592.90   688.92   714.16
                              726.55   798.70   948.66   958.99   973.86
                              978.82  1004.57  1014.87  1047.21  1059.43
                             1062.38  1073.55  1093.75  1120.53  1136.68
                             1143.52  1160.39  1181.63  1238.61  1244.08
                             1244.93  1259.62  1335.21  1350.73  1368.80
                             1384.74  1406.89  1409.40  1438.55  1450.70
                             1496.14  1554.41  1560.54  1562.11  1578.84
                             1580.46  1604.34  1609.02  1623.84  1631.02
                             1658.21  1661.18  1701.75  1705.98  1715.45
                             1745.48  1798.06  1802.16  1867.10  1888.35
                             2057.05  2134.93  2376.92  2474.05  5883.26
                             5921.76  5930.98  5944.77  5999.80  6021.74
                             6086.39  6087.28  6090.61  6091.49  6158.80
                             6186.31  6345.66  6347.44  6355.73  6364.58
                             6369.32  6377.79  6377.91  6380.23

 Zero-point correction=                           0.324383 (Hartree/Particle)
 Thermal correction to Energy=                    0.334540
 Thermal correction to Enthalpy=                  0.335485
 Thermal correction to Gibbs Free Energy=         0.286061
 Sum of electronic and zero-point Energies=           -782.077922
 Sum of electronic and thermal Energies=              -782.067765
 Sum of electronic and thermal Enthalpies=            -782.066821
 Sum of electronic and thermal Free Energies=         -782.116244

                     E (Thermal)             CV                S
                      KCal/Mol        Cal/Mol-Kelvin    Cal/Mol-Kelvin
 Total                  209.927             47.127            104.020
 Electronic               0.000              0.000              0.000
 Translational            0.889              2.981             42.305
 Rotational               0.889              2.981             33.150
 Vibrational            208.150             41.165             28.565
 Vibration     1          0.593              1.987              9.095
 Vibration     2          0.630              1.865              2.311
 Vibration     3          0.656              1.784              1.823
 Vibration     4          0.687              1.691              1.470
 Vibration     5          0.714              1.611              1.250
 Vibration     6          0.716              1.605              1.234
 Vibration     7          0.753              1.504              1.022
 Vibration     8          0.776              1.444              0.919
 Vibration     9          0.835              1.297              0.713
 Vibration    10          0.852              1.258              0.667
 Vibration    11          0.860              1.239              0.646
 Vibration    12          0.911              1.128              0.534

 Normal termination of Gaussian 16 at Mon Mar  6 11:18:05 2023.
