 Gaussian 16, Revision C.01,
 Gaussian 16:  ES64L-G16RevC.01  3-Jul-2019

 ----------------------------------------------------------------------
 #p pop=(regular,nbo,savenbos) freq=noraman def2svp empiricaldispersion
 =gd3bj output=wfx pbe1pbe
 ----------------------------------------------------------------------

 ----------------------------------------
 SENBES_Complex_1_Ligand_0_NN_Cu_oriented
 ----------------------------------------
 Symbolic Z-matrix:
 Charge =  0 Multiplicity = 1

                         Standard orientation:
 ---------------------------------------------------------------------
 Center     Atomic      Atomic             Coordinates (Angstroms)
 Number     Number       Type             X           Y           Z
 ---------------------------------------------------------------------
      1         16           0        0.283642    1.914745   -0.015928
      2          7           0        0.746811   -0.636429    0.013759
      3          7           0       -1.733438   -1.562495    0.011639
      4          6           0       -0.192202    0.246163   -0.063392
      5          6           0        2.063017   -0.052928    0.315728
      6          6           0       -1.596171   -0.222448   -0.095286
      7          6           0       -4.084305   -1.299700    0.089377
      8          6           0       -2.952485   -2.100935    0.098596
      9          1           0       -4.968240   -1.707685    0.189664
     10          1           0       -3.037062   -3.058559    0.185935
     11          6           0        2.291327   -0.190912    1.829175
     12          1           0        1.610988    0.288760    2.306775
     13          1           0        3.138495    0.156860    2.070849
     14          1           0        2.244713   -1.109157    2.086451
     15          8           0       -2.516128    1.944596   -0.319652
     16          6           0       -2.712519    0.633995   -0.161138
     17          6           0       -3.973700    0.057540   -0.045469
     18          1           0       -3.401089    2.510375   -0.670420
     19          1           0       -4.753829    0.620362   -0.077086
     20          6           0        2.027050    1.411726   -0.110345
     21          1           0        2.355431    1.497876   -1.012210
     22          8           0        4.247406   -0.164797   -0.528577
     23          8           0        2.978650   -1.977525   -0.790990
     24          6           0        3.133505   -0.856315   -0.408074
     25          1           0        4.907295   -0.559616   -1.041184
     26          1           0        2.570880    1.942010    0.457004
 ---------------------------------------------------------------------

 SCF Done:  E(RPBE1PBE) =  -1118.73384692     A.U. after   15 cycles

 The electronic state is 1-A.
 Alpha  occ. eigenvalues --  -89.00474 -19.27098 -19.25927 -19.18699 -14.38820
 Alpha  occ. eigenvalues --  -14.36583 -10.35313 -10.31630 -10.29208 -10.28107
 Alpha  occ. eigenvalues --  -10.27792 -10.25329 -10.24519 -10.23988 -10.23473
 Alpha  occ. eigenvalues --  -10.18788  -8.00686  -5.94903  -5.94503  -5.93947
 Alpha  occ. eigenvalues --   -1.13895  -1.09038  -1.03537  -0.97339  -0.95041
 Alpha  occ. eigenvalues --   -0.83736  -0.82223  -0.80167  -0.78313  -0.72977
 Alpha  occ. eigenvalues --   -0.69818  -0.67299  -0.66692  -0.62345  -0.58714
 Alpha  occ. eigenvalues --   -0.57352  -0.53242  -0.52431  -0.51541  -0.50392
 Alpha  occ. eigenvalues --   -0.48793  -0.47546  -0.46464  -0.46008  -0.45769
 Alpha  occ. eigenvalues --   -0.44216  -0.43325  -0.42011  -0.41372  -0.40610
 Alpha  occ. eigenvalues --   -0.39749  -0.38653  -0.37766  -0.35580  -0.34743
 Alpha  occ. eigenvalues --   -0.33310  -0.29687  -0.27847  -0.26951  -0.25550
 Alpha  occ. eigenvalues --   -0.24891  -0.22700
 Alpha virt. eigenvalues --   -0.05098  -0.01407   0.00525   0.02754   0.04664
 Alpha virt. eigenvalues --    0.05648   0.07481   0.09673   0.10538   0.12780
 Alpha virt. eigenvalues --    0.14121   0.14497   0.15577   0.16744   0.17231

 Mulliken charges:
               1
     1  S   -0.008294
     2  N   -0.141478
     3  N   -0.131791
     4  C   -0.055823
     5  C   -0.388328
     6  C    0.008625
     7  C    0.021723
     8  C    0.154216
     9  H   -0.040668
    10  H   -0.040019
    11  C    0.335219
    12  H   -0.020874
    13  H   -0.030162
    14  H   -0.009691
    15  O   -0.286044
    16  C    0.131526
    17  C    0.071595
    18  H    0.265252
    19  H   -0.085772
    20  C    0.207817
    21  H    0.016377
    22  O   -0.169636
    23  O   -0.199844
    24  C    0.233529
    25  H    0.169091
    26  H   -0.006546
 Sum of Mulliken charges =  -0.00000

 Dipole moment (field-independent basis, Debye):
    X=             -2.3190    Y=              3.7745    Z=             -0.0643  Tot=              4.4304
 Quadrupole moment (field-independent basis, Debye-Ang):
   XX=            -59.9610   YY=           -100.9238   ZZ=            -96.4193
   XY=              0.0150   XZ=              1.0836   YZ=             -4.5297

  Exact polarizability:     189.089       4.060     140.685       2.086      -4.460      78.139
 Approx polarizability:     256.694      -5.417     252.628       1.893      -5.818     117.553

 Summary of Natural Population Analysis:

                                       Natural Population
                Natural  -----------------------------------------------
    Atom  No    Charge         Core      Valence    Rydberg      Total
 -----------------------------------------------------------------------
      S    1    0.22071      9.99905     5.74732    0.03291    15.77929
      N    2   -0.45900      1.99924     5.43890    0.02085     7.45900
      N    3   -0.41480      1.99931     5.39899    0.01649     7.41480
      C    4    0.09060      1.99910     3.87313    0.03717     5.90940
      C    5    0.03488      1.99897     3.94207    0.02408     5.96512
      C    6    0.11478      1.99885     3.85678    0.02958     5.88522
      C    7   -0.20141      1.99911     4.18959    0.01271     6.20141
      C    8    0.07291      1.99912     3.90712    0.02085     5.92709
      H    9    0.19519      0.00000     0.80147    0.00334     0.80481
      H   10    0.17142      0.00000     0.82573    0.00285     0.82858
      C   11   -0.52763      1.99908     4.51433    0.01422     6.52763
      H   12    0.19855      0.00000     0.79860    0.00285     0.80145
      H   13    0.18723      0.00000     0.80982    0.00295     0.81277
      H   14    0.20357      0.00000     0.79327    0.00317     0.79643
      O   15   -0.69741      1.99965     6.68863    0.00913     8.69741
      C   16    0.34626      1.99870     3.63163    0.02341     5.65374
      C   17   -0.24188      1.99899     4.22738    0.01551     6.24188
      H   18    0.50026      0.00000     0.49424    0.00550     0.49974
      H   19    0.19034      0.00000     0.80654    0.00312     0.80966
      C   20   -0.44398      1.99887     4.42536    0.01976     6.44398
      H   21    0.19972      0.00000     0.79653    0.00375     0.80028
      O   22   -0.70995      1.99963     6.69862    0.01170     8.70995
      O   23   -0.58066      1.99971     6.56971    0.01124     8.58066
      C   24    0.86394      1.99919     3.07729    0.05958     5.13606
      H   25    0.48565      0.00000     0.50675    0.00760     0.51435
      H   26    0.20070      0.00000     0.79648    0.00281     0.79930
 =======================================================================
   * Total *   -0.00000     39.98658    83.61630    0.39712   124.00000

 ******   14 imaginary frequencies (negative Signs) ******

                      1                      2                      3
                      A                      A                      A
 Frequencies --  -1442.7976             -1209.5046             -1085.5823
 Red. masses --      1.0094                 1.0283                 1.0359
 Frc consts  --      1.2380                 0.8863                 0.7193
 IR Inten    --      0.2765                 5.4848                16.0714

                      4                      5                      6
                      A                      A                      A
 Frequencies --  -1080.8844             -1037.5066              -980.9036
 Red. masses --      1.0734                 1.0421                 1.0413
 Frc consts  --      0.7389                 0.6609                 0.5903
 IR Inten    --     35.8313                 9.4275                 3.4903

                      7                      8                      9
                      A                      A                      A
 Frequencies --   -849.6484              -744.1074              -670.7229
 Red. masses --      1.0858                 1.0225                 1.0827
 Frc consts  --      0.4618                 0.3336                 0.2870
 IR Inten    --      9.0633                 1.5425               108.3940

                     10                     11                     12
                      A                      A                      A
 Frequencies --   -497.5671              -418.7579              -146.8467
 Red. masses --      1.2362                 1.3237                 2.8374
 Frc consts  --      0.1803                 0.1368                 0.0360
 IR Inten    --     17.6862                 2.8572                 8.0270

                     13                     14                     15
                      A                      A                      A
 Frequencies --    -99.2000               -25.8400               104.2319
 Red. masses --      4.8661                 3.4875                 7.3196
 Frc consts  --      0.0282                 0.0014                 0.0469
 IR Inten    --      9.2225                18.8899                 2.9293

                     16                     17                     18
                      A                      A                      A
 Frequencies --    158.4121               189.4238               221.9846
 Red. masses --      2.9187                 3.1944                 1.2977
 Frc consts  --      0.0432                 0.0675                 0.0377
 IR Inten    --      3.0325                 3.8031                13.7497

                     19                     20                     21
                      A                      A                      A
 Frequencies --    234.5555               249.8736               303.1159
 Red. masses --      5.8031                 4.5401                 5.7180
 Frc consts  --      0.1881                 0.1670                 0.3095
 IR Inten    --     14.4574                11.7971                 4.1236

                     22                     23                     24
                      A                      A                      A
 Frequencies --    329.5812               338.9996               350.0803
 Red. masses --      9.7920                 5.8387                 6.6970
 Frc consts  --      0.6267                 0.3953                 0.4836
 IR Inten    --      1.8143                 2.3598                 3.2000

                     25                     26                     27
                      A                      A                      A
 Frequencies --    398.6220               420.8463               463.9261
 Red. masses --      6.9442                 4.5861                 5.9936
 Frc consts  --      0.6501                 0.4786                 0.7600
 IR Inten    --      6.2169                 0.8915                 8.4310

                     28                     29                     30
                      A                      A                      A
 Frequencies --    517.7011               572.7352               597.3443
 Red. masses --      4.4586                 5.0480                 7.1694
 Frc consts  --      0.7041                 0.9756                 1.5072
 IR Inten    --     49.7405                62.2760                 8.4400

                     31                     32                     33
                      A                      A                      A
 Frequencies --    622.4027               642.4011               669.0198
 Red. masses --      9.5310                 5.3485                 3.8609
 Frc consts  --      2.1754                 1.3004                 1.0182
 IR Inten    --      3.7786                 2.0482                 7.5726

                     34                     35                     36
                      A                      A                      A
 Frequencies --    693.5502               696.2415               753.0589
 Red. masses --     10.9529                 5.2947                 4.8406
 Frc consts  --      3.1041                 1.5122                 1.6174
 IR Inten    --      2.7391                 1.0735                 4.9646

                     37                     38                     39
                      A                      A                      A
 Frequencies --    790.5128               796.0624               812.9319
 Red. masses --      3.1095                 4.7400                 3.8783
 Frc consts  --      1.1449                 1.7698                 1.5101
 IR Inten    --      1.9719                 2.0405                 7.4693

                     40                     41                     42
                      A                      A                      A
 Frequencies --    830.2147               834.5359               871.2384
 Red. masses --     10.1674                 2.4482                 1.4052
 Frc consts  --      4.1290                 1.0046                 0.6284
 IR Inten    --      0.7799                 3.3854                 8.4415

                     43                     44                     45
                      A                      A                      A
 Frequencies --    899.3938               911.7330               947.2224
 Red. masses --      1.5621                 2.7357                 1.1520
 Frc consts  --      0.7445                 1.3399                 0.6090
 IR Inten    --     24.4427                 0.3703                11.2702

                     46                     47                     48
                      A                      A                      A
 Frequencies --    981.8679              1046.7597              1104.1814
 Red. masses --      3.1328                 8.0003                 1.0736
 Frc consts  --      1.7795                 5.1648                 0.7712
 IR Inten    --     49.1996                66.2207               114.7237

                     49                     50                     51
                      A                      A                      A
 Frequencies --   1152.1005              1185.4648              1224.3923
 Red. masses --      5.9247                 5.5843                 6.8700
 Frc consts  --      4.6334                 4.6237                 6.0680
 IR Inten    --     22.1870                49.3794                 5.0487

                     52                     53                     54
                      A                      A                      A
 Frequencies --   1261.6352              1269.7317              1345.6503
 Red. masses --      6.9642                 8.0097                 9.1680
 Frc consts  --      6.5311                 7.6083                 9.7811
 IR Inten    --     21.5082                88.9919                38.5810

                     55                     56                     57
                      A                      A                      A
 Frequencies --   1411.6437              1433.9199              1498.6020
 Red. masses --      4.5249                 7.7717                 1.9114
 Frc consts  --      5.3126                 9.4150                 2.5291
 IR Inten    --     22.8447               230.6789                 5.3575

                     58                     59                     60
                      A                      A                      A
 Frequencies --   1507.7751              1619.1194              1663.7764
 Red. masses --      4.7979                12.3176                 5.5809
 Frc consts  --      6.4265                19.0254                 9.1022
 IR Inten    --    243.9717                81.9251                56.1778

                     61                     62                     63
                      A                      A                      A
 Frequencies --   1677.9798              1937.3798              2212.9451
 Red. masses --     10.2562                12.5314                 1.0678
 Frc consts  --     17.0142                27.7127                 3.0808
 IR Inten    --     42.4023               269.3031                64.3448

                     64                     65                     66
                      A                      A                      A
 Frequencies --   4414.3226              4450.9902              4533.9750
 Red. masses --      1.0903                 1.0661                 1.0391
 Frc consts  --     12.5175                12.4441                12.5849
 IR Inten    --      0.5969               139.0958                 2.7638

                     67                     68                     69
                      A                      A                      A
 Frequencies --   4551.6426              4584.3522              4608.4487
 Red. masses --      1.0703                 1.0906                 1.0903
 Frc consts  --     13.0650                13.5046                13.6428
 IR Inten    --      1.0243                 1.5773                 1.5775

                     70                     71                     72
                      A                      A                      A
 Frequencies --   4716.3995              4798.4491              4818.0812
 Red. masses --      1.1026                 1.0982                 1.1037
 Frc consts  --     14.4509                14.8980                15.0950
 IR Inten    --      0.5062                 0.2903                 1.4379

 - Thermochemistry -
 -------------------
 Temperature   298.150 Kelvin.  Pressure   1.00000 Atm.
 Atom     1 has atomic number 16 and mass  31.97207

 Molecular mass:   238.04121 amu.
 Principal axes and moments of inertia in atomic units:
                           1         2         3
     Eigenvalues --  1774.839395995.623517220.01648
           X            0.99994   0.00889   0.00624
           Y           -0.00882   0.99990  -0.01131
           Z           -0.00634   0.01126   0.99992
 This molecule is an asymmetric top.
 Rotational symmetry number  1.
 Warning -- assumption of classical behavior for rotation
           may cause significant error
 Rotational temperatures (Kelvin)      0.04880     0.01445     0.01200
 Rotational constants (GHZ):           1.01685     0.30101     0.24996
   14 imaginary frequencies ignored.
 Zero-point vibrational energy     503828.4 (Joules/Mol)
                                  120.41789 (Kcal/Mol)
 Warning -- explicit consideration of  16 degrees of freedom as
           vibrations may cause significant error
 Vibrational temperatures:    149.97   227.92   272.54   319.39   337.47
          (Kelvin)            359.51   436.12   474.19   487.74   503.69
                              573.53   605.50   667.49   744.86   824.04
                              859.45   895.50   924.27   962.57   997.86
                             1001.74  1083.48  1137.37  1145.36  1169.63
                             1194.49  1200.71  1253.52  1294.03  1311.78
                             1362.84  1412.69  1506.05  1588.67  1657.62
                             1705.62  1761.63  1815.21  1826.86  1936.09
                             2031.04  2063.09  2156.15  2169.35  2329.55
                             2393.80  2414.24  2787.46  3183.93  6351.23
                             6403.98  6523.38  6548.80  6595.86  6630.53
                             6785.85  6903.90  6932.14

 Zero-point correction=                           0.191898 (Hartree/Particle)
 Thermal correction to Energy=                    0.202657
 Thermal correction to Enthalpy=                  0.203602
 Thermal correction to Gibbs Free Energy=         0.155134
 Sum of electronic and zero-point Energies=          -1118.541949
 Sum of electronic and thermal Energies=             -1118.531190
 Sum of electronic and thermal Enthalpies=           -1118.530245
 Sum of electronic and thermal Free Energies=        -1118.578713

                     E (Thermal)             CV                S
                      KCal/Mol        Cal/Mol-Kelvin    Cal/Mol-Kelvin
 Total                  127.169             43.978            102.009
 Electronic               0.000              0.000              0.000
 Translational            0.889              2.981             42.303
 Rotational               0.889              2.981             32.707
 Vibrational            125.392             38.016             26.998
 Vibration     1          0.605              1.946              3.374
 Vibration     2          0.621              1.893              2.569
 Vibration     3          0.633              1.854              2.233
 Vibration     4          0.648              1.808              1.943
 Vibration     5          0.654              1.788              1.844
 Vibration     6          0.663              1.763              1.731
 Vibration     7          0.695              1.668              1.400
 Vibration     8          0.712              1.616              1.262
 Vibration     9          0.719              1.598              1.217
 Vibration    10          0.727              1.575              1.166
 Vibration    11          0.765              1.473              0.968
 Vibration    12          0.783              1.425              0.889
 Vibration    13          0.821              1.330              0.755
 Vibration    14          0.873              1.211              0.615
 Vibration    15          0.929              1.090              0.499
 Vibration    16          0.955              1.037              0.454

 Normal termination of Gaussian 16 at Sat Mar  4 11:58:12 2023.
