 Gaussian 16, Revision C.01,
 Gaussian 16:  ES64L-G16RevC.01  3-Jul-2019

 ----------------------------------------------------------------------
 #p pop=(regular,nbo,savenbos) freq=noraman def2svp empiricaldispersion
 =gd3bj output=wfx pbe1pbe
 ----------------------------------------------------------------------

 ----------------------------------------
 SETGAA_Complex_0_Ligand_0_NN_Cu_oriented
 ----------------------------------------
 Symbolic Z-matrix:
 Charge = -1 Multiplicity = 1

                         Standard orientation:
 ---------------------------------------------------------------------
 Center     Atomic      Atomic             Coordinates (Angstroms)
 Number     Number       Type             X           Y           Z
 ---------------------------------------------------------------------
      1         16           0       -0.961349   -1.247792    0.136627
      2          6           0        0.678916   -0.540854    0.087627
      3          6           0        1.435449   -0.602297   -1.076653
      4          6           0        2.704363   -0.036171   -1.112045
      5          1           0        3.210331   -0.076593   -1.891765
      6          6           0        3.217275    0.590863    0.017047
      7          6           0        2.461265    0.652192    1.181907
      8          1           0        2.804049    1.071869    1.937875
      9          6           0        1.191819    0.086603    1.217094
     10          1           0        0.686344    0.127723    1.996179
     11          7           0       -1.957975   -0.056858    0.353570
     12          8           0       -0.986092   -2.128762    1.291405
     13          6           0       -2.768529    2.058082   -0.450718
     14          1           0       -2.098943    2.633772   -0.048871
     15          1           0       -3.133098    2.511502   -1.226740
     16          6           0       -2.143626    0.761565   -0.864692
     17          7           0       -3.828214    1.786769    0.507203
     18          1           0       -4.538162    1.415113    0.101856
     19          1           0       -4.089984    2.559885    0.884270
     20          6           0        4.580279    1.272922   -0.053524
     21          1           0        5.169147    0.765043   -0.629224
     22          1           0        4.497543    2.154023   -0.347489
     23          1           0        4.996820    1.267435    0.846253
     24          8           0       -1.119623   -1.900251   -1.152889
     25          1           0       -2.719869    0.298868   -1.493308
     26          1           0        1.092011   -1.021610   -1.832668
     27          1           0       -1.288809    0.922938   -1.292184
 ---------------------------------------------------------------------

 SCF Done:  E(RPBE1PBE) =  -1007.25361559     A.U. after   14 cycles

 The electronic state is 1-A.
 Alpha  occ. eigenvalues --  -89.00787 -18.98065 -18.97909 -14.19819 -14.14205
 Alpha  occ. eigenvalues --  -10.12197 -10.09746 -10.09731 -10.09712 -10.09673
 Alpha  occ. eigenvalues --  -10.09260 -10.08999 -10.07996 -10.05882  -7.97535
 Alpha  occ. eigenvalues --   -5.91764  -5.91672  -5.91555  -0.92806  -0.80330
 Alpha  occ. eigenvalues --   -0.78937  -0.76089  -0.70518  -0.68840  -0.65483
 Alpha  occ. eigenvalues --   -0.61609  -0.59845  -0.52403  -0.50705  -0.48976
 Alpha  occ. eigenvalues --   -0.44774  -0.40031  -0.38584  -0.37350  -0.37063
 Alpha  occ. eigenvalues --   -0.36763  -0.34454  -0.33318  -0.32990  -0.31156
 Alpha  occ. eigenvalues --   -0.30308  -0.28048  -0.26996  -0.25378  -0.25125
 Alpha  occ. eigenvalues --   -0.24378  -0.24196  -0.23098  -0.15712  -0.14686
 Alpha  occ. eigenvalues --   -0.14317  -0.13509  -0.11122  -0.10637  -0.10257
 Alpha  occ. eigenvalues --   -0.05855  -0.03339
 Alpha virt. eigenvalues --    0.11748   0.12330   0.18133   0.20151   0.22812
 Alpha virt. eigenvalues --    0.23126   0.24649   0.25135   0.25541   0.27297
 Alpha virt. eigenvalues --    0.28292   0.29058   0.30509   0.30679   0.31830

 Mulliken charges:
               1
     1  S    0.855285
     2  C   -0.095292
     3  C    0.114100
     4  C    0.061914
     5  H   -0.142869
     6  C   -0.136933
     7  C    0.053703
     8  H   -0.140337
     9  C    0.155575
    10  H   -0.119514
    11  N   -0.583575
    12  O   -0.552912
    13  C    0.187191
    14  H   -0.058224
    15  H   -0.083009
    16  C    0.248812
    17  N   -0.144378
    18  H    0.030211
    19  H    0.019574
    20  C    0.244464
    21  H   -0.032266
    22  H   -0.024522
    23  H   -0.028219
    24  O   -0.562601
    25  H   -0.065771
    26  H   -0.122398
    27  H   -0.078008
 Sum of Mulliken charges =  -1.00000

 Dipole moment (field-independent basis, Debye):
    X=              5.3607    Y=              6.6303    Z=             -1.9829  Tot=              8.7538
 Quadrupole moment (field-independent basis, Debye-Ang):
   XX=           -102.1942   YY=           -105.5801   ZZ=            -97.9804
   XY=             -8.0150   XZ=              4.6213   YZ=              2.0082

  Exact polarizability:     169.747      10.487     101.288      -2.497       4.282     109.294
 Approx polarizability:     222.475      20.483     149.051     -12.654      12.122     188.283

 Summary of Natural Population Analysis:

                                       Natural Population
                Natural  -----------------------------------------------
    Atom  No    Charge         Core      Valence    Rydberg      Total
 -----------------------------------------------------------------------
      S    1    2.29733      9.99795     3.46656    0.23816    13.70267
      C    2   -0.28755      1.99889     4.25618    0.03248     6.28755
      C    3   -0.16431      1.99898     4.14609    0.01925     6.16431
      C    4   -0.20172      1.99898     4.18734    0.01540     6.20172
      H    5    0.16090      0.00000     0.83585    0.00325     0.83910
      C    6   -0.03500      1.99906     4.02111    0.01483     6.03500
      C    7   -0.20644      1.99898     4.19213    0.01532     6.20644
      H    8    0.16169      0.00000     0.83510    0.00322     0.83831
      C    9   -0.13461      1.99899     4.11715    0.01847     6.13461
      H   10    0.18070      0.00000     0.81426    0.00504     0.81930
      N   11   -1.03035      1.99943     6.01448    0.01644     8.03035
      O   12   -0.99462      1.99977     6.98647    0.00838     8.99462
      C   13   -0.14246      1.99909     4.12967    0.01370     6.14246
      H   14    0.15970      0.00000     0.83509    0.00521     0.84030
      H   15    0.13215      0.00000     0.86325    0.00460     0.86785
      C   16   -0.17314      1.99906     4.15626    0.01783     6.17314
      N   17   -0.78664      1.99943     5.76473    0.02248     7.78664
      H   18    0.30750      0.00000     0.68654    0.00596     0.69250
      H   19    0.30353      0.00000     0.69061    0.00586     0.69647
      C   20   -0.55635      1.99913     4.54790    0.00931     6.55635
      H   21    0.18680      0.00000     0.81041    0.00279     0.81320
      H   22    0.17889      0.00000     0.81833    0.00279     0.82111
      H   23    0.19150      0.00000     0.80570    0.00280     0.80850
      O   24   -1.03970      1.99978     7.03194    0.00799     9.03970
      H   25    0.15126      0.00000     0.84124    0.00750     0.84874
      H   26    0.18674      0.00000     0.80875    0.00450     0.81326
      H   27    0.15419      0.00000     0.83960    0.00621     0.84581
 =======================================================================
   * Total *   -1.00000     35.98751    77.50272    0.50977   114.00000

 ******   20 imaginary frequencies (negative Signs) ******

                      1                      2                      3
                      A                      A                      A
 Frequencies --  -1570.7684             -1449.9178             -1434.8085
 Red. masses --      1.0384                 1.0170                 1.0688
 Frc consts  --      1.5095                 1.2597                 1.2964
 IR Inten    --     54.1548                 1.6580                39.8025

                      4                      5                      6
                      A                      A                      A
 Frequencies --  -1388.1395             -1378.7583             -1268.1262
 Red. masses --      1.1286                 1.0713                 1.0273
 Frc consts  --      1.2813                 1.1999                 0.9734
 IR Inten    --    140.7804                 1.1676                 0.3547

                      7                      8                      9
                      A                      A                      A
 Frequencies --  -1242.1738             -1171.9517             -1091.6764
 Red. masses --      1.0403                 1.0639                 1.0369
 Frc consts  --      0.9457                 0.8609                 0.7281
 IR Inten    --      1.4156                 3.7779                 5.0560

                     10                     11                     12
                      A                      A                      A
 Frequencies --  -1044.7766              -984.7713              -929.7099
 Red. masses --      1.0402                 1.0766                 1.1173
 Frc consts  --      0.6690                 0.6152                 0.5690
 IR Inten    --      1.4031                 0.6846                 5.0698

                     13                     14                     15
                      A                      A                      A
 Frequencies --   -928.3556              -916.3484              -831.7801
 Red. masses --      1.0625                 1.0477                 1.1087
 Frc consts  --      0.5395                 0.5183                 0.4519
 IR Inten    --     17.6700                 0.1365                 0.2645

                     16                     17                     18
                      A                      A                      A
 Frequencies --   -752.5494              -567.5641              -459.2387
 Red. masses --      1.0358                 1.3882                 1.6159
 Frc consts  --      0.3456                 0.2635                 0.2008
 IR Inten    --     12.5744                 7.8964                 4.2229

                     19                     20                     21
                      A                      A                      A
 Frequencies --   -348.9934              -320.4991               105.9098
 Red. masses --      1.9845                 1.9539                 6.6835
 Frc consts  --      0.1424                 0.1183                 0.0442
 IR Inten    --      7.3113                 3.8620                 0.0759

                     22                     23                     24
                      A                      A                      A
 Frequencies --    173.9414               197.9208               243.1054
 Red. masses --      8.8128                 7.0936                 8.3657
 Frc consts  --      0.1571                 0.1637                 0.2913
 IR Inten    --      1.2108                 0.3187                 0.4013

                     25                     26                     27
                      A                      A                      A
 Frequencies --    295.2051               335.0431               367.6763
 Red. masses --      9.5309                 5.2035                 6.8723
 Frc consts  --      0.4894                 0.3442                 0.5474
 IR Inten    --      3.9337                22.2608                 5.5906

                     28                     29                     30
                      A                      A                      A
 Frequencies --    399.6183               469.0177               501.8865
 Red. masses --      3.1309                 3.8745                 2.2817
 Frc consts  --      0.2946                 0.5022                 0.3386
 IR Inten    --      3.1048                 5.2050                 5.6909

                     31                     32                     33
                      A                      A                      A
 Frequencies --    537.7514               556.1337               571.9981
 Red. masses --     10.1866                 5.7690                 4.0571
 Frc consts  --      1.7356                 1.0513                 0.7821
 IR Inten    --      0.1014                38.5590                95.5331

                     34                     35                     36
                      A                      A                      A
 Frequencies --    612.6376               658.8022               659.5441
 Red. masses --      6.4070                 3.7489                 3.0195
 Frc consts  --      1.4168                 0.9587                 0.7739
 IR Inten    --      5.0917                12.5798                29.5629

                     37                     38                     39
                      A                      A                      A
 Frequencies --    689.1705               690.8103               714.2896
 Red. masses --      3.1633                 4.9074                 4.5738
 Frc consts  --      0.8852                 1.3798                 1.3749
 IR Inten    --     22.0033                76.2762                 2.4970

                     40                     41                     42
                      A                      A                      A
 Frequencies --    726.7481               823.6569               831.4910
 Red. masses --      4.9137                 6.9350                 1.9624
 Frc consts  --      1.5291                 2.7720                 0.7994
 IR Inten    --      2.5206                 4.2043                20.0184

                     43                     44                     45
                      A                      A                      A
 Frequencies --    885.3532               891.0465               925.4287
 Red. masses --      4.3509                 3.0167                 2.8321
 Frc consts  --      2.0094                 1.4112                 1.4291
 IR Inten    --      2.1370                 2.7882                19.6934

                     46                     47                     48
                      A                      A                      A
 Frequencies --    970.7232               990.4152              1007.0764
 Red. masses --      1.1166                 1.4628                 1.2455
 Frc consts  --      0.6199                 0.8454                 0.7442
 IR Inten    --      6.9078                90.6333                24.2137

                     49                     50                     51
                      A                      A                      A
 Frequencies --   1046.9387              1095.9730              1126.8845
 Red. masses --      1.2536                 6.4404                 1.1183
 Frc consts  --      0.8096                 4.5579                 0.8367
 IR Inten    --      0.8163                 8.8230                16.8534

                     52                     53                     54
                      A                      A                      A
 Frequencies --   1131.1793              1159.8999              1204.7722
 Red. masses --      3.6411                 4.1631                 7.7806
 Frc consts  --      2.7450                 3.3000                 6.6538
 IR Inten    --     13.8483                79.5717                13.0071

                     55                     56                     57
                      A                      A                      A
 Frequencies --   1234.8907              1248.0507              1366.8817
 Red. masses --      6.4912                12.3510                 8.7836
 Frc consts  --      5.8322                11.3349                 9.6691
 IR Inten    --     28.6755               326.5546                 9.3300

                     58                     59                     60
                      A                      A                      A
 Frequencies --   1380.1391              1428.6507              1439.2454
 Red. masses --     18.8325                10.0906                 7.8956
 Frc consts  --     21.1351                12.1345                 9.6361
 IR Inten    --    203.2217                11.2108                12.9947

                     61                     62                     63
                      A                      A                      A
 Frequencies --   1626.4567              1676.5293              4201.8017
 Red. masses --     10.9367                 9.6596                 1.0648
 Frc consts  --     17.0460                15.9967                11.0763
 IR Inten    --      1.8643                 3.8548                23.0854

                     64                     65                     66
                      A                      A                      A
 Frequencies --   4397.2723              4405.2041              4513.5196
 Red. masses --      1.0581                 1.0597                 1.0836
 Frc consts  --     12.0539                12.1167                13.0062
 IR Inten    --     16.6354               102.5243                10.1341

                     67                     68                     69
                      A                      A                      A
 Frequencies --   4520.3545              4530.8027              4985.4997
 Red. masses --      1.1100                 1.1093                 1.0934
 Frc consts  --     13.3639                13.4167                16.0125
 IR Inten    --     11.3727                46.6405                 1.9991

                     70                     71                     72
                      A                      A                      A
 Frequencies --   5021.1438              5025.7284              5038.7557
 Red. masses --      1.0881                 1.0882                 1.0900
 Frc consts  --     16.1635                16.1947                16.3050
 IR Inten    --      5.5317                 4.4140                 2.6171

                     73                     74                     75
                      A                      A                      A
 Frequencies --   5046.7183              5128.4304              5266.6724
 Red. masses --      1.0900                 1.0506                 1.0949
 Frc consts  --     16.3569                16.2795                17.8936
 IR Inten    --      2.1805                 0.1562                 3.4547

 - Thermochemistry -
 -------------------
 Temperature   298.150 Kelvin.  Pressure   1.00000 Atm.
 Atom     1 has atomic number 16 and mass  31.97207

 Molecular mass:   213.06977 amu.
 Principal axes and moments of inertia in atomic units:
                           1         2         3
     Eigenvalues --  1789.615814854.504385566.15361
           X            0.99992  -0.01182   0.00338
           Y            0.01180   0.99990   0.00748
           Z           -0.00347  -0.00744   0.99997
 This molecule is an asymmetric top.
 Rotational symmetry number  1.
 Warning -- assumption of classical behavior for rotation
           may cause significant error
 Rotational temperatures (Kelvin)      0.04840     0.01784     0.01556
 Rotational constants (GHZ):           1.00845     0.37177     0.32423
   20 imaginary frequencies ignored.
 Zero-point vibrational energy     580672.1 (Joules/Mol)
                                  138.78397 (Kcal/Mol)
 Warning -- explicit consideration of  14 degrees of freedom as
           vibrations may cause significant error
 Vibrational temperatures:    152.38   250.26   284.76   349.77   424.73
          (Kelvin)            482.05   529.00   574.96   674.81   722.10
                              773.70   800.15   822.98   881.45   947.87
                              948.94   991.56   993.92  1027.70  1045.63
                             1185.06  1196.33  1273.83  1282.02  1331.49
                             1396.65  1424.99  1448.96  1506.31  1576.86
                             1621.34  1627.51  1668.84  1733.40  1776.73
                             1795.67  1966.64  1985.71  2055.51  2070.75
                             2340.11  2412.15  6045.46  6326.69  6338.11
                             6493.95  6503.78  6518.81  7173.02  7224.31
                             7230.90  7249.65  7261.10  7378.67  7577.57

 Zero-point correction=                           0.221166 (Hartree/Particle)
 Thermal correction to Energy=                    0.230347
 Thermal correction to Enthalpy=                  0.231291
 Thermal correction to Gibbs Free Energy=         0.185896
 Sum of electronic and zero-point Energies=          -1007.032449
 Sum of electronic and thermal Energies=             -1007.023269
 Sum of electronic and thermal Enthalpies=           -1007.022325
 Sum of electronic and thermal Free Energies=        -1007.067720

                     E (Thermal)             CV                S
                      KCal/Mol        Cal/Mol-Kelvin    Cal/Mol-Kelvin
 Total                  144.545             38.051             95.542
 Electronic               0.000              0.000              0.000
 Translational            0.889              2.981             41.973
 Rotational               0.889              2.981             32.247
 Vibrational            142.767             32.089             21.322
 Vibration     1          0.605              1.945              3.343
 Vibration     2          0.627              1.875              2.392
 Vibration     3          0.637              1.843              2.152
 Vibration     4          0.659              1.774              1.780
 Vibration     5          0.689              1.683              1.444
 Vibration     6          0.716              1.606              1.236
 Vibration     7          0.740              1.539              1.089
 Vibration     8          0.766              1.471              0.964
 Vibration     9          0.826              1.319              0.740
 Vibration    10          0.857              1.246              0.653
 Vibration    11          0.893              1.167              0.570
 Vibration    12          0.912              1.126              0.532
 Vibration    13          0.928              1.092              0.500
 Vibration    14          0.972              1.005              0.428

 Normal termination of Gaussian 16 at Mon Mar  6 10:46:19 2023.
