 Gaussian 16, Revision C.01,
 Gaussian 16:  ES64L-G16RevC.01  3-Jul-2019

 ----------------------------------------------------------------------
 #p pop=(regular,nbo,savenbos) freq=noraman def2svp empiricaldispersion
 =gd3bj output=wfx pbe1pbe
 ----------------------------------------------------------------------

 ----------------------------------------
 SEWRAN_Complex_1_Ligand_2_ON_Cu_oriented
 ----------------------------------------
 Symbolic Z-matrix:
 Charge =  0 Multiplicity = 1

                         Standard orientation:
 ---------------------------------------------------------------------
 Center     Atomic      Atomic             Coordinates (Angstroms)
 Number     Number       Type             X           Y           Z
 ---------------------------------------------------------------------
      1          7           0        1.334781    1.751197    0.091093
      2          7           0       -1.786894   -0.308531   -0.471418
      3          6           0        1.212093   -0.695772    0.055266
      4          6           0        0.435609    0.602641    0.226644
      5          6           0       -0.734251    0.727119   -0.711465
      6          6           0       -2.607598   -0.123636    0.732638
      7          1           0       -1.389278   -1.083718   -0.514867
      8          1           0       -2.312817   -0.303704   -1.267021
      9          1           0        1.215414    1.917235   -0.681002
     10          1           0       -1.190335    1.517704   -0.553464
     11          1           0       -0.351729    0.621331   -1.575236
     12          1           0       -3.251774   -0.655396    0.504301
     13          1           0       -3.060952    0.846161    0.675564
     14          8           0        0.575192   -1.757221   -0.081361
     15          8           0        2.471132   -0.632936    0.149831
     16          1           0        0.139884    0.667143    1.345998
     17          1           0       -1.954966   -0.087337    1.676449
     18          1           0        1.115645    2.521073    0.685293
 ---------------------------------------------------------------------

 SCF Done:  E(RPBE1PBE) =  -417.340380374     A.U. after   16 cycles

 The electronic state is 1-A.
 Alpha  occ. eigenvalues --  -19.09260 -19.06458 -14.54403 -14.33877 -10.33320
 Alpha  occ. eigenvalues --  -10.29523 -10.26036 -10.24582  -1.11392  -0.98101
 Alpha  occ. eigenvalues --   -0.93742  -0.87244  -0.85229  -0.80774  -0.70160
 Alpha  occ. eigenvalues --   -0.65730  -0.63284  -0.57919  -0.55450  -0.52738
 Alpha  occ. eigenvalues --   -0.50877  -0.47555  -0.46353  -0.45145  -0.39792
 Alpha  occ. eigenvalues --   -0.38341  -0.33306  -0.32076  -0.25335  -0.19484
 Alpha  occ. eigenvalues --   -0.18696  -0.16277
 Alpha virt. eigenvalues --   -0.00617   0.02919   0.05705   0.06361   0.07185
 Alpha virt. eigenvalues --    0.10865   0.11307   0.11978   0.14221   0.14740
 Alpha virt. eigenvalues --    0.17101   0.17317   0.20689   0.22778   0.26264

 Mulliken charges:
               1
     1  N   -0.007970
     2  N    0.044737
     3  C    0.175229
     4  C   -0.252614
     5  C    0.245712
     6  C    0.177151
     7  H    0.041900
     8  H    0.136958
     9  H   -0.025081
    10  H   -0.054808
    11  H    0.018096
    12  H   -0.053174
    13  H    0.057841
    14  O   -0.424841
    15  O   -0.366483
    16  H    0.048577
    17  H    0.152751
    18  H    0.086020
 Sum of Mulliken charges =  -0.00000

 Dipole moment (field-independent basis, Debye):
    X=            -13.5586    Y=              5.4822    Z=             -1.4881  Tot=             14.7005
 Quadrupole moment (field-independent basis, Debye-Ang):
   XX=            -50.1604   YY=            -52.6929   ZZ=            -41.5722
   XY=              6.4028   XZ=              0.8812   YZ=              0.7057

  Exact polarizability:      73.262       2.899      55.513       2.097       1.801      47.529
 Approx polarizability:     101.176       6.947      75.812       4.490       3.325      66.686

 Summary of Natural Population Analysis:

                                       Natural Population
                Natural  -----------------------------------------------
    Atom  No    Charge         Core      Valence    Rydberg      Total
 -----------------------------------------------------------------------
      N    1   -0.73535      1.99919     5.70980    0.02636     7.73535
      N    2   -0.47398      1.99918     5.46412    0.01068     7.47398
      C    3    0.75878      1.99934     3.16770    0.07419     5.24122
      C    4   -0.17510      1.99914     4.15065    0.02531     6.17510
      C    5   -0.14313      1.99886     4.12083    0.02345     6.14313
      C    6   -0.32507      1.99884     4.31202    0.01421     6.32507
      H    7    0.40194      0.00000     0.57899    0.01908     0.59806
      H    8    0.39846      0.00000     0.59510    0.00643     0.60154
      H    9    0.26470      0.00000     0.72758    0.00772     0.73530
      H   10    0.16120      0.00000     0.83317    0.00563     0.83880
      H   11    0.19445      0.00000     0.80062    0.00493     0.80555
      H   12    0.14117      0.00000     0.85600    0.00283     0.85883
      H   13    0.21578      0.00000     0.78196    0.00226     0.78422
      O   14   -0.81691      1.99974     6.80695    0.01022     8.81691
      O   15   -0.70398      1.99976     6.69491    0.00930     8.70398
      H   16    0.22667      0.00000     0.76953    0.00379     0.77333
      H   17    0.26609      0.00000     0.73097    0.00294     0.73391
      H   18    0.34428      0.00000     0.65018    0.00554     0.65572
 =======================================================================
   * Total *   -0.00000     15.99405    47.75109    0.25486    64.00000

 ******    9 imaginary frequencies (negative Signs) ******

                      1                      2                      3
                      A                      A                      A
 Frequencies --  -2615.5531             -2124.9883             -1926.4694
 Red. masses --      1.0750                 1.0870                 1.0630
 Frc consts  --      4.3330                 2.8918                 2.3243
 IR Inten    --    107.8884                39.7687                 7.2451

                      4                      5                      6
                      A                      A                      A
 Frequencies --  -1641.8979             -1414.5491             -1307.6119
 Red. masses --      1.1369                 1.0371                 1.0460
 Frc consts  --      1.8057                 1.2226                 1.0537
 IR Inten    --      0.7807               100.4298                 2.7340

                      7                      8                      9
                      A                      A                      A
 Frequencies --  -1077.6302              -859.4388              -568.2296
 Red. masses --      1.0767                 1.1912                 1.2403
 Frc consts  --      0.7367                 0.5184                 0.2360
 IR Inten    --     25.8042                17.7352                 7.4353

                     10                     11                     12
                      A                      A                      A
 Frequencies --     54.9593               160.8960               265.2643
 Red. masses --      8.0546                 3.2349                 4.2436
 Frc consts  --      0.0143                 0.0493                 0.1759
 IR Inten    --      6.3569                 7.1146                19.0084

                     13                     14                     15
                      A                      A                      A
 Frequencies --    318.8252               391.6041               441.3330
 Red. masses --      3.2228                 3.3640                 3.4410
 Frc consts  --      0.1930                 0.3039                 0.3949
 IR Inten    --      3.1750                14.7359                50.4595

                     16                     17                     18
                      A                      A                      A
 Frequencies --    494.9674               505.7127               597.7966
 Red. masses --      1.6851                 2.3963                 2.3671
 Frc consts  --      0.2432                 0.3611                 0.4984
 IR Inten    --     41.6963                 7.1747                10.0082

                     19                     20                     21
                      A                      A                      A
 Frequencies --    664.8283               697.5766               757.0883
 Red. masses --      4.0847                 3.9136                 2.3528
 Frc consts  --      1.0637                 1.1220                 0.7946
 IR Inten    --      4.3854                43.3861                 1.9299

                     22                     23                     24
                      A                      A                      A
 Frequencies --    843.9960               916.7944               976.5559
 Red. masses --      4.1798                 1.6033                 1.3524
 Frc consts  --      1.7542                 0.7940                 0.7599
 IR Inten    --     24.1841                 7.8415                10.9499

                     25                     26                     27
                      A                      A                      A
 Frequencies --   1005.7969              1052.9474              1162.2022
 Red. masses --      4.1638                 3.1673                 2.8631
 Frc consts  --      2.4818                 2.0690                 2.2785
 IR Inten    --      7.1413                 2.2851                 1.1633

                     28                     29                     30
                      A                      A                      A
 Frequencies --   1177.8880              1204.6265              1245.2568
 Red. masses --      3.2378                 1.9527                 1.1490
 Frc consts  --      2.6467                 1.6696                 1.0498
 IR Inten    --     42.2140                22.2886                26.1881

                     31                     32                     33
                      A                      A                      A
 Frequencies --   1303.4045              1309.2532              1365.4175
 Red. masses --      1.3464                 1.1788                 1.3041
 Frc consts  --      1.3476                 1.1905                 1.4325
 IR Inten    --     16.9379                 7.5394                14.1238

                     34                     35                     36
                      A                      A                      A
 Frequencies --   1369.7080              1417.9915              1463.0207
 Red. masses --      1.7151                 1.2637                 5.2570
 Frc consts  --      1.8959                 1.4971                 6.6296
 IR Inten    --     38.7575                 4.4832               131.8928

                     37                     38                     39
                      A                      A                      A
 Frequencies --   1495.0005              1750.5895              2582.9252
 Red. masses --      1.0766                12.4538                 1.0846
 Frc consts  --      1.4178                22.4865                 4.2632
 IR Inten    --     17.2493               449.5557                44.2449

                     40                     41                     42
                      A                      A                      A
 Frequencies --   2733.9613              3382.8585              3826.1081
 Red. masses --      1.0713                 1.0782                 1.0680
 Frc consts  --      4.7180                 7.2698                 9.2113
 IR Inten    --      8.6025                 5.2156                 4.5408

                     43                     44                     45
                      A                      A                      A
 Frequencies --   4372.4162              4712.0531              5083.9121
 Red. masses --      1.0717                 1.0658                 1.1031
 Frc consts  --     12.0714                13.9425                16.7975
 IR Inten    --     32.3019                 2.8378                 2.3423

                     46                     47                     48
                      A                      A                      A
 Frequencies --   5573.2113              5983.0386              7064.1450
 Red. masses --      1.0769                 1.0876                 1.0751
 Frc consts  --     19.7077                22.9387                31.6086
 IR Inten    --    217.7998                 6.6938                 8.6735

 - Thermochemistry -
 -------------------
 Temperature   298.150 Kelvin.  Pressure   1.00000 Atm.
 Atom     1 has atomic number  7 and mass  14.00307

 Molecular mass:   118.07423 amu.
 Principal axes and moments of inertia in atomic units:
                           1         2         3
     Eigenvalues --   571.108021225.468141597.63966
           X            0.99967   0.02474  -0.00693
           Y           -0.02471   0.99968   0.00496
           Z            0.00705  -0.00478   0.99996
 This molecule is an asymmetric top.
 Rotational symmetry number  1.
 Warning -- assumption of classical behavior for rotation
           may cause significant error
 Rotational temperatures (Kelvin)      0.15166     0.07068     0.05421
 Rotational constants (GHZ):           3.16007     1.47270     1.12963
    9 imaginary frequencies ignored.
 Zero-point vibrational energy     429016.3 (Joules/Mol)
                                  102.53737 (Kcal/Mol)
 Warning -- explicit consideration of   9 degrees of freedom as
           vibrations may cause significant error
 Vibrational temperatures:     79.07   231.49   381.66   458.72   563.43
          (Kelvin)            634.98   712.15   727.61   860.10   956.54
                             1003.66  1089.28  1214.32  1319.06  1405.05
                             1447.12  1514.96  1672.15  1694.72  1733.19
                             1791.65  1875.31  1883.72  1964.53  1970.70
                             2040.17  2104.96  2150.97  2518.71  3716.25
                             3933.56  4867.18  5504.92  6290.93  6779.59
                             7314.62  8018.61  8608.26 10163.73

 Zero-point correction=                           0.163404 (Hartree/Particle)
 Thermal correction to Energy=                    0.170429
 Thermal correction to Enthalpy=                  0.171373
 Thermal correction to Gibbs Free Energy=         0.131365
 Sum of electronic and zero-point Energies=           -417.176977
 Sum of electronic and thermal Energies=              -417.169952
 Sum of electronic and thermal Enthalpies=            -417.169007
 Sum of electronic and thermal Free Energies=         -417.209015

                     E (Thermal)             CV                S
                      KCal/Mol        Cal/Mol-Kelvin    Cal/Mol-Kelvin
 Total                  106.946             25.866             84.204
 Electronic               0.000              0.000              0.000
 Translational            0.889              2.981             40.213
 Rotational               0.889              2.981             28.505
 Vibrational            105.168             19.904             15.486
 Vibration     1          0.596              1.976              4.630
 Vibration     2          0.622              1.890              2.539
 Vibration     3          0.671              1.737              1.627
 Vibration     4          0.705              1.638              1.316
 Vibration     5          0.759              1.488              0.994
 Vibration     6          0.801              1.380              0.822
 Vibration     7          0.851              1.261              0.671
 Vibration     8          0.861              1.237              0.644
 Vibration     9          0.956              1.036              0.453

 Normal termination of Gaussian 16 at Sat Mar  4 11:41:24 2023.
