 Gaussian 16, Revision C.01,
 Gaussian 16:  ES64L-G16RevC.01  3-Jul-2019

 ----------------------------------------------------------------------
 #p pop=(regular,nbo,savenbos) freq=noraman def2svp empiricaldispersion
 =gd3bj output=wfx pbe1pbe
 ----------------------------------------------------------------------

 ----------------------------------------
 SIJWEQ_Complex_0_Ligand_0_NN_Cu_oriented
 ----------------------------------------
 Symbolic Z-matrix:
 Charge = -1 Multiplicity = 1

                         Standard orientation:
 ---------------------------------------------------------------------
 Center     Atomic      Atomic             Coordinates (Angstroms)
 Number     Number       Type             X           Y           Z
 ---------------------------------------------------------------------
      1         16           0       -1.197062   -1.484576   -1.126694
      2          8           0       -0.850362   -0.881734   -2.396360
      3          8           0       -1.794304   -2.792754   -1.146457
      4          8           0        2.499479    2.404036   -1.244668
      5          8           0        4.177549   -0.680000    1.648922
      6          7           0        0.141766   -1.647864   -0.227279
      7          7           0        2.149219   -1.145180    0.673963
      8          7           0        3.371679    0.872948    0.257587
      9          7           0       -4.845338    2.102990    1.855553
     10          1           0       -4.840723    2.941789    1.707121
     11          1           0       -5.545608    1.741206    2.106919
     12          6           0       -2.310889   -0.407263   -0.303893
     13          6           0       -3.372728   -0.936784    0.415777
     14          1           0       -3.506688   -1.877897    0.438167
     15          6           0       -4.235619   -0.102426    1.099606
     16          1           0       -4.971473   -0.474547    1.569253
     17          6           0       -4.040950    1.285630    1.110853
     18          6           0       -2.983834    1.811731    0.358146
     19          1           0       -2.848102    2.750759    0.330027
     20          6           0       -2.133384    0.972121   -0.346154
     21          1           0       -1.425103    1.341071   -0.861173
     22          6           0        1.162758   -0.730808   -0.187215
     23          6           0        3.168295   -0.321824    0.817948
     24          6           0        2.409274    1.230860   -0.596712
     25          6           0        1.285885    0.464681   -0.875009
     26          1           0        0.633512    0.746074   -1.505830
     27          6           0        3.585648    3.288864   -0.899003
     28          1           0        4.439737    2.836515   -1.059696
     29          1           0        3.536440    4.097227   -1.450253
     30          1           0        3.518518    3.534492    0.047057
     31          6           0        4.113304   -1.998912    2.215865
     32          1           0        4.098914   -2.663067    1.495601
     33          1           0        4.896963   -2.148741    2.783696
     34          1           0        3.299864   -2.083524    2.754691
 ---------------------------------------------------------------------

 SCF Done:  E(RPBE1PBE) =  -1380.91474568     A.U. after   14 cycles

 The electronic state is 1-A.
 Alpha  occ. eigenvalues --  -89.05220 -19.12087 -19.10807 -19.01891 -19.01650
 Alpha  occ. eigenvalues --  -14.28849 -14.23514 -14.22221 -14.18927 -10.20344
 Alpha  occ. eigenvalues --  -10.19055 -10.18073 -10.15386 -10.14794 -10.13334
 Alpha  occ. eigenvalues --  -10.12283 -10.12144 -10.12026 -10.11904 -10.11887
 Alpha  occ. eigenvalues --  -10.06011  -8.02009  -5.96208  -5.96128  -5.96072
 Alpha  occ. eigenvalues --   -0.97272  -0.97110  -0.96144  -0.89855  -0.84816
 Alpha  occ. eigenvalues --   -0.84066  -0.77272  -0.76994  -0.71397  -0.67876
 Alpha  occ. eigenvalues --   -0.67526  -0.66647  -0.63871  -0.61141  -0.56566
 Alpha  occ. eigenvalues --   -0.55918  -0.52197  -0.51012  -0.50068  -0.48147
 Alpha  occ. eigenvalues --   -0.46356  -0.44306  -0.42180  -0.39085  -0.38959
 Alpha  occ. eigenvalues --   -0.38251  -0.37844  -0.37761  -0.36436  -0.35446
 Alpha  occ. eigenvalues --   -0.34496  -0.34064  -0.33849  -0.33035  -0.31868
 Alpha  occ. eigenvalues --   -0.31103  -0.30158  -0.29369  -0.26664  -0.25524
 Alpha  occ. eigenvalues --   -0.24702  -0.24397  -0.23516  -0.22099  -0.19457
 Alpha  occ. eigenvalues --   -0.18405  -0.17689  -0.16701  -0.16301  -0.15944
 Alpha  occ. eigenvalues --   -0.14902  -0.12963  -0.12465  -0.11339  -0.09238
 Alpha  occ. eigenvalues --   -0.06775
 Alpha virt. eigenvalues --    0.09717   0.10469   0.15080   0.16102   0.16454
 Alpha virt. eigenvalues --    0.19833   0.19981   0.21277   0.21457   0.23853
 Alpha virt. eigenvalues --    0.25005   0.25136   0.25504   0.25931   0.26616

 Mulliken charges:
               1
     1  S    0.862492
     2  O   -0.522522
     3  O   -0.510342
     4  O   -0.376847
     5  O   -0.370777
     6  N   -0.417278
     7  N   -0.257352
     8  N   -0.276044
     9  N    0.119704
    10  H    0.016651
    11  H    0.001587
    12  C   -0.074664
    13  C    0.110662
    14  H   -0.089167
    15  C    0.034889
    16  H   -0.123680
    17  C   -0.007141
    18  C    0.032740
    19  H   -0.122667
    20  C    0.126410
    21  H   -0.096540
    22  C    0.127333
    23  C    0.196125
    24  C    0.217067
    25  C   -0.057323
    26  H   -0.103267
    27  C    0.343955
    28  H   -0.016540
    29  H   -0.025177
    30  H   -0.021660
    31  C    0.346674
    32  H   -0.018892
    33  H   -0.032456
    34  H   -0.015951
 Sum of Mulliken charges =  -1.00000

 Dipole moment (field-independent basis, Debye):
    X=             -3.5565    Y=              7.4825    Z=              4.3886  Tot=              9.3753
 Quadrupole moment (field-independent basis, Debye-Ang):
   XX=           -136.6176   YY=           -137.3602   ZZ=           -142.2247
   XY=            -14.1406   XZ=            -13.3736   YZ=             -7.3191

  Exact polarizability:     236.737       5.471     183.016      -9.989      -5.119     131.017
 Approx polarizability:     302.532      23.028     296.854     -16.283      -9.364     205.969

 Summary of Natural Population Analysis:

                                       Natural Population
                Natural  -----------------------------------------------
    Atom  No    Charge         Core      Valence    Rydberg      Total
 -----------------------------------------------------------------------
      S    1    2.30066      9.99800     3.46763    0.23371    13.69934
      O    2   -0.99987      1.99977     6.99185    0.00824     8.99987
      O    3   -0.98463      1.99977     6.97633    0.00853     8.98463
      O    4   -0.56229      1.99963     6.55267    0.00999     8.56229
      O    5   -0.56811      1.99964     6.55844    0.01003     8.56811
      N    6   -0.91930      1.99926     5.90291    0.01712     7.91930
      N    7   -0.63847      1.99919     5.62337    0.01591     7.63847
      N    8   -0.68962      1.99915     5.67508    0.01539     7.68962
      N    9   -0.69081      1.99924     5.66985    0.02171     7.69081
      H   10    0.32425      0.00000     0.67159    0.00416     0.67575
      H   11    0.31009      0.00000     0.68541    0.00450     0.68991
      C   12   -0.32610      1.99884     4.29980    0.02746     6.32610
      C   13   -0.13537      1.99900     4.11836    0.01801     6.13537
      H   14    0.19993      0.00000     0.79585    0.00422     0.80007
      C   15   -0.26073      1.99901     4.24638    0.01534     6.26073
      H   16    0.17235      0.00000     0.82442    0.00324     0.82765
      C   17    0.19207      1.99902     3.79161    0.01730     5.80793
      C   18   -0.25369      1.99902     4.23952    0.01515     6.25369
      H   19    0.17467      0.00000     0.82220    0.00313     0.82533
      C   20   -0.12986      1.99901     4.11378    0.01708     6.12986
      H   21    0.19505      0.00000     0.80112    0.00382     0.80495
      C   22    0.45840      1.99901     3.50935    0.03323     5.54160
      C   23    0.78774      1.99898     3.16957    0.04370     5.21226
      C   24    0.60336      1.99889     3.36367    0.03409     5.39664
      C   25   -0.42531      1.99886     4.40938    0.01707     6.42531
      H   26    0.21057      0.00000     0.78456    0.00487     0.78943
      C   27   -0.16103      1.99896     4.15116    0.01091     6.16103
      H   28    0.16708      0.00000     0.82913    0.00379     0.83292
      H   29    0.15815      0.00000     0.83973    0.00212     0.84185
      H   30    0.16272      0.00000     0.83368    0.00361     0.83728
      C   31   -0.16080      1.99896     4.15096    0.01087     6.16080
      H   32    0.16630      0.00000     0.83007    0.00363     0.83370
      H   33    0.15365      0.00000     0.84410    0.00226     0.84635
      H   34    0.16896      0.00000     0.82726    0.00379     0.83104
 =======================================================================
   * Total *   -1.00000     49.98122   111.37078    0.64800   162.00000

 ******   21 imaginary frequencies (negative Signs) ******

                      1                      2                      3
                      A                      A                      A
 Frequencies --  -2299.1056             -2013.7045             -1769.6882
 Red. masses --      1.0991                 1.0499                 1.0297
 Frc consts  --      3.4228                 2.5083                 1.9000
 IR Inten    --    223.2380                98.3328                 5.6347

                      4                      5                      6
                      A                      A                      A
 Frequencies --  -1259.5693             -1258.6816             -1257.6290
 Red. masses --      1.0669                 1.0100                 1.0094
 Frc consts  --      0.9972                 0.9428                 0.9407
 IR Inten    --     53.1859                 0.6879                 0.1904

                      7                      8                      9
                      A                      A                      A
 Frequencies --  -1215.0841             -1187.8131             -1056.0401
 Red. masses --      1.0422                 1.0609                 1.0207
 Frc consts  --      0.9066                 0.8819                 0.6707
 IR Inten    --      1.0016                27.2984                 0.2881

                     10                     11                     12
                      A                      A                      A
 Frequencies --  -1030.8050              -958.0348              -685.8974
 Red. masses --      1.0315                 1.1125                 1.1204
 Frc consts  --      0.6458                 0.6016                 0.3106
 IR Inten    --      0.6469                63.7379                 9.3211

                     13                     14                     15
                      A                      A                      A
 Frequencies --   -679.2324              -667.1231              -660.5064
 Red. masses --      1.1201                 1.2399                 1.2458
 Frc consts  --      0.3045                 0.3251                 0.3202
 IR Inten    --     11.2829                 5.8792                 4.0223

                     16                     17                     18
                      A                      A                      A
 Frequencies --   -642.8241              -632.3557              -617.7858
 Red. masses --      1.1606                 1.1301                 1.1201
 Frc consts  --      0.2826                 0.2662                 0.2519
 IR Inten    --     10.9930                 1.7968                 6.1241

                     19                     20                     21
                      A                      A                      A
 Frequencies --   -574.0496              -355.2581               -21.4396
 Red. masses --      1.1686                 1.0471                 9.2880
 Frc consts  --      0.2269                 0.0779                 0.0025
 IR Inten    --      7.6278                 9.0517                 2.2360

                     22                     23                     24
                      A                      A                      A
 Frequencies --     56.8990                92.5054               103.3510
 Red. masses --      7.4868                 8.5397                 8.7043
 Frc consts  --      0.0143                 0.0431                 0.0548
 IR Inten    --      1.6383                 1.0160                 0.8507

                     25                     26                     27
                      A                      A                      A
 Frequencies --    173.1555               204.6750               215.3862
 Red. masses --      7.4855                 8.7314                 9.0073
 Frc consts  --      0.1322                 0.2155                 0.2462
 IR Inten    --      0.3644                 1.0855                 0.0624

                     28                     29                     30
                      A                      A                      A
 Frequencies --    237.8415               243.9394               252.3853
 Red. masses --     10.9545                11.2182                10.1067
 Frc consts  --      0.3651                 0.3933                 0.3793
 IR Inten    --      2.4140                 0.1250                 1.0101

                     31                     32                     33
                      A                      A                      A
 Frequencies --    288.5690               305.8663               333.0053
 Red. masses --     10.3028                 8.0430                 9.3151
 Frc consts  --      0.5055                 0.4433                 0.6086
 IR Inten    --      6.5722                 0.5665                 3.0166

                     34                     35                     36
                      A                      A                      A
 Frequencies --    364.8255               385.6016               438.2787
 Red. masses --      7.9768                10.5681                 8.0799
 Frc consts  --      0.6255                 0.9258                 0.9144
 IR Inten    --      0.7091                 1.0503                 1.4376

                     37                     38                     39
                      A                      A                      A
 Frequencies --    480.6266               519.0335               539.5154
 Red. masses --      6.9099                 7.4059                10.9938
 Frc consts  --      0.9405                 1.1755                 1.8854
 IR Inten    --      6.8867                 6.4272                 1.7927

                     40                     41                     42
                      A                      A                      A
 Frequencies --    543.8321               592.3992               614.4789
 Red. masses --     12.0119                10.7661                 9.4885
 Frc consts  --      2.0931                 2.2261                 2.1109
 IR Inten    --     90.6108                32.0332               277.4587

                     43                     44                     45
                      A                      A                      A
 Frequencies --    655.1446               661.3118               672.0349
 Red. masses --      3.9040                 6.8652                 3.7352
 Frc consts  --      0.9873                 1.7690                 0.9939
 IR Inten    --      1.5998                 0.5323                 1.8712

                     46                     47                     48
                      A                      A                      A
 Frequencies --    678.4437               709.8431               733.4144
 Red. masses --     11.2174                 6.9933                 9.2728
 Frc consts  --      3.0421                 2.0762                 2.9387
 IR Inten    --     40.6587                 5.5342                 0.2808

                     49                     50                     51
                      A                      A                      A
 Frequencies --    742.4539               753.7328               779.8343
 Red. masses --      6.3528                 9.3304                 5.0827
 Frc consts  --      2.0633                 3.1231                 1.8211
 IR Inten    --     15.2805                 4.3456                10.0325

                     52                     53                     54
                      A                      A                      A
 Frequencies --    799.0156               812.4764               823.3754
 Red. masses --      4.0234                10.0803                 3.2735
 Frc consts  --      1.5134                 3.9205                 1.3075
 IR Inten    --      1.1387                 6.7156               128.8030

                     55                     56                     57
                      A                      A                      A
 Frequencies --    829.9399               845.8401               863.7105
 Red. masses --     10.0699                 2.2261                 2.2469
 Frc consts  --      4.0867                 0.9384                 0.9876
 IR Inten    --     29.4170               145.2002                 3.3494

                     58                     59                     60
                      A                      A                      A
 Frequencies --    900.8732               920.9153              1011.4667
 Red. masses --      6.0388                 4.9437                 2.5644
 Frc consts  --      2.8876                 2.4703                 1.5458
 IR Inten    --     17.3173                17.8148                28.7817

                     61                     62                     63
                      A                      A                      A
 Frequencies --   1016.1915              1079.8234              1107.3049
 Red. masses --      9.9838                 2.6787                 7.6987
 Frc consts  --      6.0743                 1.8403                 5.5616
 IR Inten    --     21.8182                37.1586                20.3866

                     64                     65                     66
                      A                      A                      A
 Frequencies --   1129.0336              1130.0190              1149.5222
 Red. masses --      1.0326                 1.0338                 1.1833
 Frc consts  --      0.7756                 0.7778                 0.9213
 IR Inten    --     12.6093                16.8685                13.4282

                     67                     68                     69
                      A                      A                      A
 Frequencies --   1154.3699              1203.6152              1213.9116
 Red. masses --      1.1907                 4.9067                 4.2265
 Frc consts  --      0.9349                 4.1881                 3.6695
 IR Inten    --      0.2261               440.2211               299.2225

                     70                     71                     72
                      A                      A                      A
 Frequencies --   1236.1845              1303.7245              1360.7333
 Red. masses --     16.2260                 8.5515                10.5680
 Frc consts  --     14.6092                 8.5638                11.5289
 IR Inten    --    364.4606                74.2634               216.7200

                     73                     74                     75
                      A                      A                      A
 Frequencies --   1404.0886              1419.9716              1438.5738
 Red. masses --      9.7046                 9.8896                13.7289
 Frc consts  --     11.2724                11.7487                16.7398
 IR Inten    --      3.4753                53.4798               194.1340

                     76                     77                     78
                      A                      A                      A
 Frequencies --   1454.6782              1484.7454              1513.0565
 Red. masses --     10.8670                11.0684                10.7730
 Frc consts  --     13.5486                14.3760                14.5311
 IR Inten    --    982.2068               288.2102                59.8500

                     79                     80                     81
                      A                      A                      A
 Frequencies --   1530.8388              1638.7832              1661.7219
 Red. masses --      9.5467                11.1985                10.2594
 Frc consts  --     13.1814                17.7195                16.6912
 IR Inten    --     94.6404               405.7344                45.0114

                     82                     83                     84
                      A                      A                      A
 Frequencies --   1669.8946              1677.8459              4246.4751
 Red. masses --     11.8168                11.0762                 1.0306
 Frc consts  --     19.4145                18.3716                10.9495
 IR Inten    --    940.8369               211.5202                48.2725

                     85                     86                     87
                      A                      A                      A
 Frequencies --   4247.7811              4437.0277              4437.6443
 Red. masses --      1.0307                 1.1079                 1.1080
 Frc consts  --     10.9572                12.8510                12.8557
 IR Inten    --     45.7317                 6.0859                 8.9036

                     88                     89                     90
                      A                      A                      A
 Frequencies --   4438.5927              4440.5022              4764.0503
 Red. masses --      1.1081                 1.1078                 1.0881
 Frc consts  --     12.8626                12.8703                14.5497
 IR Inten    --      7.8735                 9.9258                 2.8576

                     91                     92                     93
                      A                      A                      A
 Frequencies --   4768.4374              4774.9944              4777.0821
 Red. masses --      1.0878                 1.0901                 1.0906
 Frc consts  --     14.5729                14.6440                14.6633
 IR Inten    --      3.1217                 6.1188                 7.3880

                     94                     95                     96
                      A                      A                      A
 Frequencies --   4779.3316              5981.8251              6500.5016
 Red. masses --      1.0909                 1.0583                 1.0880
 Frc consts  --     14.6818                22.3111                27.0882
 IR Inten    --      6.3086                73.5039                45.8148

 - Thermochemistry -
 -------------------
 Temperature   298.150 Kelvin.  Pressure   1.00000 Atm.
 Atom     1 has atomic number 16 and mass  31.97207

 Molecular mass:   309.06575 amu.
 Principal axes and moments of inertia in atomic units:
                           1         2         3
     Eigenvalues --  4437.54779********************
           X            0.99996  -0.00740  -0.00459
           Y            0.00716   0.99875  -0.04942
           Z            0.00495   0.04939   0.99877
 This molecule is an asymmetric top.
 Rotational symmetry number  1.
 Warning -- assumption of classical behavior for rotation
           may cause significant error
 Rotational temperatures (Kelvin)      0.01952     0.00799     0.00713
 Rotational constants (GHZ):           0.40670     0.16656     0.14851
   21 imaginary frequencies ignored.
 Zero-point vibrational energy     686374.6 (Joules/Mol)
                                  164.04747 (Kcal/Mol)
 Warning -- explicit consideration of  21 degrees of freedom as
           vibrations may cause significant error
 Vibrational temperatures:     81.87   133.09   148.70   249.13   294.48
          (Kelvin)            309.89   342.20   350.97   363.13   415.19
                              440.07   479.12   524.90   554.79   630.59
                              691.51   746.77   776.24   782.45   852.33
                              884.10   942.61   951.48   966.91   976.13
                             1021.31  1055.22  1068.23  1084.45  1122.01
                             1149.61  1168.97  1184.65  1194.10  1216.98
                             1242.69  1296.16  1324.99  1455.27  1462.07
                             1553.63  1593.16  1624.43  1625.85  1653.91
                             1660.88  1731.73  1746.55  1778.59  1875.77
                             1957.79  2020.17  2043.02  2069.79  2092.96
                             2136.22  2176.95  2202.54  2357.84  2390.85
                             2402.61  2414.05  6109.73  6111.61  6383.89
                             6384.78  6386.14  6388.89  6854.41  6860.72
                             6870.15  6873.16  6876.39  8606.51  9352.77

 Zero-point correction=                           0.261426 (Hartree/Particle)
 Thermal correction to Energy=                    0.274900
 Thermal correction to Enthalpy=                  0.275844
 Thermal correction to Gibbs Free Energy=         0.220527
 Sum of electronic and zero-point Energies=          -1380.653319
 Sum of electronic and thermal Energies=             -1380.639845
 Sum of electronic and thermal Enthalpies=           -1380.638901
 Sum of electronic and thermal Free Energies=        -1380.694219

                     E (Thermal)             CV                S
                      KCal/Mol        Cal/Mol-Kelvin    Cal/Mol-Kelvin
 Total                  172.502             54.764            116.425
 Electronic               0.000              0.000              0.000
 Translational            0.889              2.981             43.081
 Rotational               0.889              2.981             34.723
 Vibrational            170.725             48.802             38.621
 Vibration     1          0.596              1.975              4.562
 Vibration     2          0.602              1.955              3.606
 Vibration     3          0.605              1.947              3.390
 Vibration     4          0.627              1.876              2.401
 Vibration     5          0.640              1.833              2.091
 Vibration     6          0.645              1.818              1.998
 Vibration     7          0.656              1.783              1.819
 Vibration     8          0.659              1.773              1.774
 Vibration     9          0.664              1.759              1.714
 Vibration    10          0.685              1.695              1.482
 Vibration    11          0.696              1.663              1.385
 Vibration    12          0.715              1.610              1.245
 Vibration    13          0.738              1.545              1.101
 Vibration    14          0.754              1.501              1.017
 Vibration    15          0.798              1.387              0.832
 Vibration    16          0.837              1.293              0.708
 Vibration    17          0.874              1.208              0.612
 Vibration    18          0.895              1.163              0.566
 Vibration    19          0.899              1.153              0.557
 Vibration    20          0.950              1.048              0.463
 Vibration    21          0.974              1.001              0.425

 Normal termination of Gaussian 16 at Mon Mar  6 11:16:11 2023.
