 Gaussian 16, Revision C.01,
 Gaussian 16:  ES64L-G16RevC.01  3-Jul-2019

 ----------------------------------------------------------------------
 #p pop=(regular,nbo,savenbos) freq=noraman def2svp empiricaldispersion
 =gd3bj output=wfx pbe1pbe
 ----------------------------------------------------------------------

 ----------------------------------------
 SIYROI_Complex_3_Ligand_0_ON_Cu_oriented
 ----------------------------------------
 Symbolic Z-matrix:
 Charge =  0 Multiplicity = 1

                         Standard orientation:
 ---------------------------------------------------------------------
 Center     Atomic      Atomic             Coordinates (Angstroms)
 Number     Number       Type             X           Y           Z
 ---------------------------------------------------------------------
      1          7           0       -0.329551   -0.729548   -0.050265
      2          6           0       -1.665369   -0.520844    0.074793
      3          6           0       -2.180071    0.762720    0.009632
      4          1           0       -3.097915    0.898599    0.072448
      5          6           0       -1.332851    1.839717   -0.150900
      6          1           0       -1.675166    2.703798   -0.180322
      7          6           0        0.019408    1.628661   -0.263959
      8          6           0        0.495985    0.330268   -0.215879
      9          8           0        2.190030   -1.309132   -0.687539
     10          6           0       -2.557577   -1.698711    0.291470
     11          1           0       -2.674194   -2.169245   -0.536814
     12          1           0       -3.411602   -1.398445    0.612920
     13          1           0       -2.160962   -2.285207    0.940293
     14          6           0        1.975585    0.031676   -0.266850
     15          1           0        2.405919    0.641811   -0.901084
     16          6           0        2.613229    0.201847    1.104817
     17          1           0        2.230787   -0.431378    1.716546
     18          1           0        2.450824    1.092776    1.423984
     19          1           0        3.558462    0.052450    1.038442
     20          1           0        2.346705   -1.321557   -1.461540
     21          1           0        0.603734    2.344287   -0.371445
 ---------------------------------------------------------------------

 SCF Done:  E(RPBE1PBE) =  -440.404293249     A.U. after   14 cycles

 The electronic state is 1-A.
 Alpha  occ. eigenvalues --  -19.17364 -14.37216 -10.26781 -10.26715 -10.26250
 Alpha  occ. eigenvalues --  -10.23066 -10.21912 -10.21621 -10.18609 -10.17981
 Alpha  occ. eigenvalues --   -1.06578  -0.95012  -0.82767  -0.82380  -0.78710
 Alpha  occ. eigenvalues --   -0.73866  -0.68203  -0.64198  -0.61751  -0.56104
 Alpha  occ. eigenvalues --   -0.54935  -0.50023  -0.49808  -0.46314  -0.45602
 Alpha  occ. eigenvalues --   -0.43686  -0.43352  -0.42240  -0.41790  -0.40190
 Alpha  occ. eigenvalues --   -0.38643  -0.37280  -0.34284  -0.29188  -0.28053
 Alpha  occ. eigenvalues --   -0.26154  -0.25125
 Alpha virt. eigenvalues --   -0.01740  -0.00131   0.08417   0.10322   0.11394
 Alpha virt. eigenvalues --    0.12527   0.13925   0.14430   0.15457   0.17984
 Alpha virt. eigenvalues --    0.18899   0.19370   0.19418   0.20627   0.22247

 Mulliken charges:
               1
     1  N   -0.180803
     2  C   -0.163592
     3  C    0.072690
     4  H   -0.110266
     5  C    0.175407
     6  H   -0.094548
     7  C    0.086706
     8  C   -0.112776
     9  O   -0.207359
    10  C    0.327666
    11  H   -0.001338
    12  H   -0.041359
    13  H   -0.009092
    14  C    0.201762
    15  H   -0.034521
    16  C    0.216532
    17  H   -0.011593
    18  H   -0.035541
    19  H   -0.017496
    20  H    0.051052
    21  H   -0.111532
 Sum of Mulliken charges =  -0.00000

 Dipole moment (field-independent basis, Debye):
    X=             -0.6128    Y=              2.4043    Z=             -0.7838  Tot=              2.6021
 Quadrupole moment (field-independent basis, Debye-Ang):
   XX=            -51.2351   YY=            -58.1940   ZZ=            -56.8920
   XY=              3.5394   XZ=             -2.9340   YZ=              0.3442

  Exact polarizability:     103.815       3.945      87.878      -1.266      -2.122      54.327
 Approx polarizability:     144.169       3.418     139.456      -5.316      -3.686      77.338

 Summary of Natural Population Analysis:

                                       Natural Population
                Natural  -----------------------------------------------
    Atom  No    Charge         Core      Valence    Rydberg      Total
 -----------------------------------------------------------------------
      N    1   -0.50199      1.99922     5.48554    0.01724     7.50199
      C    2    0.26727      1.99908     3.71019    0.02346     5.73273
      C    3   -0.23122      1.99898     4.21826    0.01399     6.23122
      H    4    0.17351      0.00000     0.82338    0.00311     0.82649
      C    5   -0.11623      1.99911     4.10275    0.01437     6.11623
      H    6    0.17047      0.00000     0.82662    0.00292     0.82953
      C    7   -0.23359      1.99898     4.22012    0.01449     6.23359
      C    8    0.21484      1.99900     3.75828    0.02788     5.78516
      O    9   -0.68824      1.99965     6.66777    0.02081     8.68824
      C   10   -0.56859      1.99911     4.56049    0.00898     6.56859
      H   11    0.20470      0.00000     0.79261    0.00270     0.79530
      H   12    0.18943      0.00000     0.80824    0.00233     0.81057
      H   13    0.20769      0.00000     0.78911    0.00320     0.79231
      C   14    0.14955      1.99888     3.83012    0.02145     5.85045
      H   15    0.15776      0.00000     0.83827    0.00397     0.84224
      C   16   -0.54495      1.99911     4.53597    0.00986     6.54495
      H   17    0.19498      0.00000     0.80107    0.00394     0.80502
      H   18    0.18390      0.00000     0.81373    0.00238     0.81610
      H   19    0.18927      0.00000     0.80736    0.00336     0.81073
      H   20    0.40655      0.00000     0.58622    0.00723     0.59345
      H   21    0.17489      0.00000     0.82199    0.00312     0.82511
 =======================================================================
   * Total *    0.00000     19.99112    53.79810    0.21078    74.00000

 ******   16 imaginary frequencies (negative Signs) ******

                      1                      2                      3
                      A                      A                      A
 Frequencies --  -2512.8207             -2054.0004             -1424.2052
 Red. masses --      1.0721                 1.0851                 1.0988
 Frc consts  --      3.9886                 2.6974                 1.3131
 IR Inten    --    133.9681               101.5270                41.0838

                      4                      5                      6
                      A                      A                      A
 Frequencies --  -1403.8313             -1384.4341             -1320.5208
 Red. masses --      1.0181                 1.0145                 1.0446
 Frc consts  --      1.1822                 1.1456                 1.0732
 IR Inten    --      0.4594                 0.2286                 0.1294

                      7                      8                      9
                      A                      A                      A
 Frequencies --  -1205.3851             -1029.8572             -1012.2750
 Red. masses --      1.0326                 1.0529                 1.1013
 Frc consts  --      0.8840                 0.6580                 0.6649
 IR Inten    --      0.7295                 3.7095                 9.3009

                     10                     11                     12
                      A                      A                      A
 Frequencies --  -1002.5968              -994.4238              -935.8973
 Red. masses --      1.0653                 1.0530                 1.0886
 Frc consts  --      0.6309                 0.6135                 0.5618
 IR Inten    --      8.8103                 2.5235                 0.5883

                     13                     14                     15
                      A                      A                      A
 Frequencies --   -838.8233              -737.1934              -346.0477
 Red. masses --      1.1085                 1.1029                 2.0641
 Frc consts  --      0.4596                 0.3531                 0.1456
 IR Inten    --     11.1151                 6.1581                 0.3822

                     16                     17                     18
                      A                      A                      A
 Frequencies --   -136.5486               242.8017               351.6673
 Red. masses --      2.9803                 7.3297                 5.6944
 Frc consts  --      0.0327                 0.2546                 0.4149
 IR Inten    --      0.9106                 0.5629                 0.7535

                     19                     20                     21
                      A                      A                      A
 Frequencies --    389.4491               418.4307               430.0383
 Red. masses --      1.3542                 4.2497                 1.2320
 Frc consts  --      0.1210                 0.4384                 0.1342
 IR Inten    --     15.1147                 3.6804                12.2607

                     22                     23                     24
                      A                      A                      A
 Frequencies --    436.0954               507.3386               587.3082
 Red. masses --      4.8731                 3.1424                 6.2078
 Frc consts  --      0.5460                 0.4766                 1.2616
 IR Inten    --      2.2534                 0.6644                 1.4819

                     25                     26                     27
                      A                      A                      A
 Frequencies --    608.4943               665.6667               712.2467
 Red. masses --      5.1911                 4.9106                 4.1700
 Frc consts  --      1.1325                 1.2820                 1.2464
 IR Inten    --      2.5121                 5.5916                 4.6150

                     28                     29                     30
                      A                      A                      A
 Frequencies --    752.3701               779.9930               810.8899
 Red. masses --      5.0234                 2.8800                 2.0876
 Frc consts  --      1.6754                 1.0324                 0.8087
 IR Inten    --      7.4933                 7.0000                 9.6552

                     31                     32                     33
                      A                      A                      A
 Frequencies --    856.1142               880.4606               966.7781
 Red. masses --      4.8718                 1.9000                 1.4861
 Frc consts  --      2.1038                 0.8678                 0.8184
 IR Inten    --      8.4912                25.9926                21.7438

                     34                     35                     36
                      A                      A                      A
 Frequencies --    974.3795               986.5154              1023.3704
 Red. masses --      1.1060                 1.2996                 1.2847
 Frc consts  --      0.6187                 0.7452                 0.7927
 IR Inten    --     13.8896                16.3332                 6.3610

                     37                     38                     39
                      A                      A                      A
 Frequencies --   1035.3651              1090.7806              1133.4125
 Red. masses --      5.8307                 2.5276                 4.5705
 Frc consts  --      3.6826                 1.7719                 3.4593
 IR Inten    --      0.9382                 0.4712                19.3093

                     40                     41                     42
                      A                      A                      A
 Frequencies --   1170.3542              1316.1074              1327.2212
 Red. masses --      6.8198                 9.1906                 7.8972
 Frc consts  --      5.5037                 9.3795                 8.1962
 IR Inten    --     54.3365                 7.3968                 1.4158

                     43                     44                     45
                      A                      A                      A
 Frequencies --   1419.5134              1477.7710              1650.4967
 Red. masses --      8.8000                 9.4398                10.4460
 Frc consts  --     10.4475                12.1458                16.7661
 IR Inten    --      1.4910                51.4710                90.5502

                     46                     47                     48
                      A                      A                      A
 Frequencies --   1677.7914              4365.3114              4469.8482
 Red. masses --     10.5255                 1.0877                 1.0328
 Frc consts  --     17.4570                12.2116                12.1578
 IR Inten    --     33.6344                15.3031                 2.3909

                     49                     50                     51
                      A                      A                      A
 Frequencies --   4475.3050              4674.7911              4680.6433
 Red. masses --      1.0324                 1.1066                 1.1064
 Frc consts  --     12.1825                14.2485                14.2814
 IR Inten    --      4.7333                 1.5515                 2.4623

                     52                     53                     54
                      A                      A                      A
 Frequencies --   4682.4261              4689.6751              5026.2177
 Red. masses --      1.1063                 1.1073                 1.0875
 Frc consts  --     14.2913                14.3481                16.1873
 IR Inten    --      0.2299                 1.6844                 0.3170

                     55                     56                     57
                      A                      A                      A
 Frequencies --   5031.9658              5042.8503              6980.5352
 Red. masses --      1.0893                 1.0922                 1.0673
 Frc consts  --     16.2502                16.3640                30.6429
 IR Inten    --      0.3654                 0.0814                93.3787

 - Thermochemistry -
 -------------------
 Temperature   298.150 Kelvin.  Pressure   1.00000 Atm.
 Atom     1 has atomic number  7 and mass  14.00307

 Molecular mass:   137.08406 amu.
 Principal axes and moments of inertia in atomic units:
                           1         2         3
     Eigenvalues --   783.923061816.888522339.38596
           X            0.99940   0.03417   0.00576
           Y           -0.03414   0.99940  -0.00573
           Z           -0.00596   0.00553   0.99997
 This molecule is an asymmetric top.
 Rotational symmetry number  1.
 Warning -- assumption of classical behavior for rotation
           may cause significant error
 Rotational temperatures (Kelvin)      0.11049     0.04767     0.03702
 Rotational constants (GHZ):           2.30219     0.99331     0.77146
   16 imaginary frequencies ignored.
 Zero-point vibrational energy     483284.1 (Joules/Mol)
                                  115.50767 (Kcal/Mol)
 Warning -- explicit consideration of   9 degrees of freedom as
           vibrations may cause significant error
 Vibrational temperatures:    349.34   505.97   560.33   602.03   618.73
          (Kelvin)            627.44   729.95   845.01   875.49   957.75
                             1024.76  1082.49  1122.24  1166.69  1231.76
                             1266.79  1390.98  1401.91  1419.38  1472.40
                             1489.66  1569.39  1630.73  1683.88  1893.59
                             1909.58  2042.36  2126.18  2374.70  2413.97
                             6280.71  6431.11  6438.97  6725.98  6734.40
                             6736.97  6747.40  7231.61  7239.88  7255.54
                            10043.43

 Zero-point correction=                           0.184073 (Hartree/Particle)
 Thermal correction to Energy=                    0.190373
 Thermal correction to Enthalpy=                  0.191317
 Thermal correction to Gibbs Free Energy=         0.152976
 Sum of electronic and zero-point Energies=           -440.220220
 Sum of electronic and thermal Energies=              -440.213920
 Sum of electronic and thermal Enthalpies=            -440.212976
 Sum of electronic and thermal Free Energies=         -440.251318

                     E (Thermal)             CV                S
                      KCal/Mol        Cal/Mol-Kelvin    Cal/Mol-Kelvin
 Total                  119.461             26.386             80.697
 Electronic               0.000              0.000              0.000
 Translational            0.889              2.981             40.658
 Rotational               0.889              2.981             29.589
 Vibrational            117.683             20.425             10.449
 Vibration     1          0.659              1.775              1.782
 Vibration     2          0.728              1.572              1.159
 Vibration     3          0.757              1.493              1.002
 Vibration     4          0.781              1.430              0.897
 Vibration     5          0.791              1.405              0.859
 Vibration     6          0.797              1.392              0.839
 Vibration     7          0.863              1.234              0.640
 Vibration     8          0.944              1.059              0.472
 Vibration     9          0.967              1.014              0.435

 Normal termination of Gaussian 16 at Sat Mar  4 11:45:41 2023.
