 Gaussian 16, Revision C.01,
 Gaussian 16:  ES64L-G16RevC.01  3-Jul-2019

 ----------------------------------------------------------------------
 #p pop=(regular,nbo,savenbos) freq=noraman def2svp empiricaldispersion
 =gd3bj output=wfx pbe1pbe
 ----------------------------------------------------------------------

 ----------------------------------------
 SOPDEG_Complex_0_Ligand_1_ON_Cu_oriented
 ----------------------------------------
 Symbolic Z-matrix:
 Charge = -1 Multiplicity = 1

                         Standard orientation:
 ---------------------------------------------------------------------
 Center     Atomic      Atomic             Coordinates (Angstroms)
 Number     Number       Type             X           Y           Z
 ---------------------------------------------------------------------
      1          8           0        1.271166    1.662312    1.137711
      2          7           0        1.581441   -0.731307    0.085069
      3          6           0        0.577251    1.498267    0.075093
      4          6           0        0.391723    0.036004   -0.397651
      5          6           0       -0.969460   -0.517430    0.076392
      6          6           0       -2.105488    0.218245   -0.612952
      7          6           0       -3.450020   -0.577225   -0.515254
      8          6           0       -1.130675   -0.525534    1.583771
      9          6           0        2.742889   -0.395906   -0.796756
     10          6           0        1.400314   -2.206889    0.053534
     11          1           0        0.352999   -0.048770   -1.473181
     12          1           0       -1.002312   -1.556629   -0.214724
     13          1           0       -2.234844    1.182204   -0.143527
     14          1           0       -4.232490   -0.025403   -1.014870
     15          1           0       -3.712985   -0.714708    0.523606
     16          1           0       -3.332223   -1.541965   -0.986792
     17          1           0       -0.303592   -1.056126    2.031325
     18          1           0       -2.056795   -1.016425    1.844473
     19          1           0       -1.146840    0.490402    1.949174
     20          1           0        2.899420    0.672652   -0.794475
     21          1           0        2.538355   -0.727469   -1.803226
     22          1           0        3.629770   -0.890324   -0.427554
     23          1           0        0.567264   -2.480520    0.683705
     24          1           0        2.297917   -2.686793    0.416805
     25          1           0        1.206787   -2.524507   -0.959114
     26          8           0        0.050629    2.401613   -0.558992
     27          1           0       -1.854083    0.354946   -1.653925
 ---------------------------------------------------------------------

 SCF Done:  E(RPBE1PBE) =  -518.741940420     A.U. after   14 cycles

 The electronic state is 1-A.
 Alpha  occ. eigenvalues --  -18.93402 -18.91921 -14.23333 -10.11708 -10.10643
 Alpha  occ. eigenvalues --  -10.10591 -10.09758 -10.09076 -10.08851 -10.08554
 Alpha  occ. eigenvalues --  -10.07563  -0.83048  -0.77717  -0.72101  -0.69161
 Alpha  occ. eigenvalues --   -0.61668  -0.58479  -0.56318  -0.52293  -0.46805
 Alpha  occ. eigenvalues --   -0.43138  -0.36457  -0.35028  -0.34419  -0.33809
 Alpha  occ. eigenvalues --   -0.30715  -0.30335  -0.29101  -0.27682  -0.26910
 Alpha  occ. eigenvalues --   -0.25940  -0.24669  -0.24334  -0.23566  -0.22363
 Alpha  occ. eigenvalues --   -0.20373  -0.20175  -0.19669  -0.18663  -0.16549
 Alpha  occ. eigenvalues --   -0.07640  -0.04030  -0.03889  -0.01577
 Alpha virt. eigenvalues --    0.17948   0.19708   0.22440   0.22956   0.24213
 Alpha virt. eigenvalues --    0.24536   0.25704   0.26101   0.26470   0.27812
 Alpha virt. eigenvalues --    0.28644   0.29239   0.29676   0.30806   0.31049

 Mulliken charges:
               1
     1  O   -0.461164
     2  N   -0.399005
     3  C    0.127309
     4  C    0.074224
     5  C   -0.243803
     6  C    0.002903
     7  C   -0.044570
     8  C    0.048263
     9  C    0.112791
    10  C    0.110130
    11  H   -0.041435
    12  H   -0.015541
    13  H    0.039343
    14  H    0.010174
    15  H    0.015151
    16  H    0.005773
    17  H    0.021467
    18  H   -0.019682
    19  H    0.042063
    20  H    0.051946
    21  H   -0.037322
    22  H   -0.003673
    23  H    0.024228
    24  H    0.001155
    25  H   -0.034656
    26  O   -0.393339
    27  H    0.007268
 Sum of Mulliken charges =  -1.00000

 Dipole moment (field-independent basis, Debye):
    X=             -2.6372    Y=             -7.7793    Z=             -1.9293  Tot=              8.4377
 Quadrupole moment (field-independent basis, Debye-Ang):
   XX=            -80.9491   YY=            -93.8212   ZZ=            -78.6730
   XY=             -5.4639   XZ=             -5.4921   YZ=             -1.8615

  Exact polarizability:     114.438      -1.928      97.966       1.510      -1.502      91.680
 Approx polarizability:     138.601      -2.146     135.505       9.352      -2.746     138.907

 Summary of Natural Population Analysis:

                                       Natural Population
                Natural  -----------------------------------------------
    Atom  No    Charge         Core      Valence    Rydberg      Total
 -----------------------------------------------------------------------
      O    1   -0.79353      1.99977     6.78511    0.00866     8.79353
      N    2   -0.52945      1.99937     5.51513    0.01495     7.52945
      C    3    0.77717      1.99936     3.14579    0.07768     5.22283
      C    4   -0.14017      1.99896     4.11455    0.02666     6.14017
      C    5   -0.24640      1.99902     4.23292    0.01446     6.24640
      C    6   -0.42044      1.99912     4.40501    0.01631     6.42044
      C    7   -0.63515      1.99928     4.62846    0.00741     6.63515
      C    8   -0.63852      1.99922     4.62670    0.01259     6.63852
      C    9   -0.40943      1.99928     4.39717    0.01298     6.40943
      C   10   -0.41548      1.99929     4.40424    0.01194     6.41548
      H   11    0.18253      0.00000     0.80983    0.00763     0.81747
      H   12    0.20251      0.00000     0.79217    0.00532     0.79749
      H   13    0.23534      0.00000     0.75888    0.00578     0.76466
      H   14    0.20520      0.00000     0.79213    0.00267     0.79480
      H   15    0.20328      0.00000     0.79393    0.00280     0.79672
      H   16    0.19744      0.00000     0.79926    0.00330     0.80256
      H   17    0.22216      0.00000     0.77430    0.00354     0.77784
      H   18    0.18816      0.00000     0.80899    0.00285     0.81184
      H   19    0.23380      0.00000     0.76222    0.00398     0.76620
      H   20    0.23362      0.00000     0.76333    0.00306     0.76638
      H   21    0.15562      0.00000     0.83761    0.00677     0.84438
      H   22    0.19052      0.00000     0.80700    0.00249     0.80948
      H   23    0.20178      0.00000     0.79540    0.00282     0.79822
      H   24    0.19715      0.00000     0.80016    0.00270     0.80285
      H   25    0.15811      0.00000     0.83419    0.00770     0.84189
      O   26   -0.77400      1.99972     6.76399    0.01029     8.77400
      H   27    0.21818      0.00000     0.77720    0.00461     0.78182
 =======================================================================
   * Total *   -1.00000     21.99239    65.72566    0.28195    88.00000

 ******    7 imaginary frequencies (negative Signs) ******

                      1                      2                      3
                      A                      A                      A
 Frequencies --   -385.8439              -376.2759              -358.3529
 Red. masses --      1.0200                 1.0224                 1.0333
 Frc consts  --      0.0895                 0.0853                 0.0782
 IR Inten    --      0.3054                 0.3015                 0.3776

                      4                      5                      6
                      A                      A                      A
 Frequencies --   -355.2480              -131.5279              -106.6750
 Red. masses --      1.0339                 2.0478                 6.2047
 Frc consts  --      0.0769                 0.0209                 0.0416
 IR Inten    --      0.2969                 1.1140                 0.1598

                      7                      8                      9
                      A                      A                      A
 Frequencies --    -41.0074                52.8223               143.6729
 Red. masses --      2.9163                 2.7414                 3.2681
 Frc consts  --      0.0029                 0.0045                 0.0397
 IR Inten    --      1.6796                 0.4929                 5.9883

                     10                     11                     12
                      A                      A                      A
 Frequencies --    165.7692               196.4035               264.9767
 Red. masses --      3.5515                 3.0046                 2.5481
 Frc consts  --      0.0575                 0.0683                 0.1054
 IR Inten    --     11.2679                 4.8798                 0.3303

                     13                     14                     15
                      A                      A                      A
 Frequencies --    301.0038               320.7611               365.0245
 Red. masses --      2.6715                 3.0781                 3.4592
 Frc consts  --      0.1426                 0.1866                 0.2716
 IR Inten    --      1.9294                 3.3010                 0.7685

                     16                     17                     18
                      A                      A                      A
 Frequencies --    379.0103               406.1833               479.9674
 Red. masses --      2.4222                 2.8002                 2.9152
 Frc consts  --      0.2050                 0.2722                 0.3957
 IR Inten    --      2.7328                 1.4434                 1.8361

                     19                     20                     21
                      A                      A                      A
 Frequencies --    529.9540               655.1497               702.6004
 Red. masses --      2.8279                 1.1973                 4.6444
 Frc consts  --      0.4679                 0.3028                 1.3508
 IR Inten    --      1.0591                 2.3822                 8.7453

                     22                     23                     24
                      A                      A                      A
 Frequencies --    793.3372               816.9265               839.5767
 Red. masses --      2.7895                 2.2179                 3.7423
 Frc consts  --      1.0344                 0.8721                 1.5542
 IR Inten    --     20.2524                 5.6439                15.9775

                     25                     26                     27
                      A                      A                      A
 Frequencies --    885.8960               904.3936               919.5167
 Red. masses --      2.9881                 1.6765                 1.6334
 Frc consts  --      1.3817                 0.8079                 0.8137
 IR Inten    --     30.2055                 8.0000                14.8780

                     28                     29                     30
                      A                      A                      A
 Frequencies --    947.9729               962.1288               982.8402
 Red. masses --      1.7059                 2.2773                 2.1210
 Frc consts  --      0.9032                 1.2421                 1.2071
 IR Inten    --     10.5243                17.9094                 0.4124

                     31                     32                     33
                      A                      A                      A
 Frequencies --    994.6179              1026.2641              1031.7098
 Red. masses --      1.3498                 2.4540                 1.3952
 Frc consts  --      0.7868                 1.5228                 0.8750
 IR Inten    --      4.9121                17.1948                 3.9057

                     34                     35                     36
                      A                      A                      A
 Frequencies --   1088.1496              1114.3200              1167.5599
 Red. masses --      1.6328                 2.9582                 1.7756
 Frc consts  --      1.1391                 2.1642                 1.4261
 IR Inten    --     16.7320                13.5733                 1.2908

                     37                     38                     39
                      A                      A                      A
 Frequencies --   1174.4763              1210.2773              1223.6076
 Red. masses --      1.6983                 1.8804                 2.6880
 Frc consts  --      1.3802                 1.6229                 2.3712
 IR Inten    --      9.4631                 1.1793                 7.0785

                     40                     41                     42
                      A                      A                      A
 Frequencies --   1231.8362              1259.0240              1273.0174
 Red. masses --      1.5252                 1.4383                 1.4839
 Frc consts  --      1.3636                 1.3433                 1.4169
 IR Inten    --      2.8601                10.7426                 7.8728

                     43                     44                     45
                      A                      A                      A
 Frequencies --   1276.1729              1302.5893              1314.4834
 Red. masses --      1.2535                 1.3565                 1.1808
 Frc consts  --      1.2028                 1.3561                 1.2021
 IR Inten    --      6.5843                 9.6913                 3.9039

                     46                     47                     48
                      A                      A                      A
 Frequencies --   1323.2795              1342.0147              1362.7733
 Red. masses --      1.5421                 1.2241                 1.8387
 Frc consts  --      1.5910                 1.2989                 2.0119
 IR Inten    --     11.3765                 4.3359                 9.7301

                     49                     50                     51
                      A                      A                      A
 Frequencies --   1391.8999              1398.8711              1405.7741
 Red. masses --      3.7275                 1.0967                 1.0852
 Frc consts  --      4.2548                 1.2645                 1.2636
 IR Inten    --    159.8710                 3.0981                 5.6497

                     52                     53                     54
                      A                      A                      A
 Frequencies --   1420.4644              1422.6062              1426.3750
 Red. masses --      1.0558                 1.0484                 1.0873
 Frc consts  --      1.2552                 1.2502                 1.3034
 IR Inten    --     11.5659                 5.0134                 3.2704

                     55                     56                     57
                      A                      A                      A
 Frequencies --   1433.8372              1436.6488              1439.8242
 Red. masses --      1.0456                 1.0588                 1.0597
 Frc consts  --      1.2666                 1.2875                 1.2943
 IR Inten    --      6.8946                22.9052                 3.1248

                     58                     59                     60
                      A                      A                      A
 Frequencies --   1443.5419              1824.0994              3202.9446
 Red. masses --      1.1484                12.1306                 1.0303
 Frc consts  --      1.4100                23.7811                 6.2276
 IR Inten    --     21.3466               401.8352                58.3846

                     61                     62                     63
                      A                      A                      A
 Frequencies --   3212.2576              3221.4773              3226.9096
 Red. masses --      1.0318                 1.0317                 1.0334
 Frc consts  --      6.2730                 6.3083                 6.3398
 IR Inten    --    115.5027                23.3017                48.1070

                     64                     65                     66
                      A                      A                      A
 Frequencies --   3248.8303              3264.1438              3265.6126
 Red. masses --      1.0825                 1.0775                 1.0664
 Frc consts  --      6.7317                 6.7642                 6.7006
 IR Inten    --     47.8903                58.3348                28.8348

                     67                     68                     69
                      A                      A                      A
 Frequencies --   3311.9236              3317.7547              3336.1446
 Red. masses --      1.1050                 1.1055                 1.1061
 Frc consts  --      7.1415                 7.1697                 7.2532
 IR Inten    --     82.8614                36.0790                20.3350

                     70                     71                     72
                      A                      A                      A
 Frequencies --   3339.6562              3344.4214              3344.9889
 Red. masses --      1.1056                 1.1059                 1.1055
 Frc consts  --      7.2656                 7.2879                 7.2881
 IR Inten    --     30.3329                28.5845                22.1921

                     73                     74                     75
                      A                      A                      A
 Frequencies --   3354.9858              3357.5982              3359.2313
 Red. masses --      1.1066                 1.1081                 1.1060
 Frc consts  --      7.3387                 7.3600                 7.3536
 IR Inten    --      9.8637                27.2233                20.1276

 - Thermochemistry -
 -------------------
 Temperature   298.150 Kelvin.  Pressure   1.00000 Atm.
 Atom     1 has atomic number  8 and mass  15.99491

 Molecular mass:   158.11810 amu.
 Principal axes and moments of inertia in atomic units:
                           1         2         3
     Eigenvalues --  1320.454762123.124192746.83899
           X            0.99961  -0.02336  -0.01502
           Y            0.02325   0.99970  -0.00702
           Z            0.01518   0.00667   0.99986
 This molecule is an asymmetric top.
 Rotational symmetry number  1.
 Warning -- assumption of classical behavior for rotation
           may cause significant error
 Rotational temperatures (Kelvin)      0.06559     0.04080     0.03153
 Rotational constants (GHZ):           1.36676     0.85004     0.65702
    7 imaginary frequencies ignored.
 Zero-point vibrational energy     618977.1 (Joules/Mol)
                                  147.93907 (Kcal/Mol)
 Warning -- explicit consideration of  12 degrees of freedom as
           vibrations may cause significant error
 Vibrational temperatures:     76.00   206.71   238.50   282.58   381.24
          (Kelvin)            433.08   461.50   525.19   545.31   584.41
                              690.57   762.49   942.61  1010.89  1141.44
                             1175.38  1207.96  1274.61  1301.22  1322.98
                             1363.92  1384.29  1414.09  1431.03  1476.57
                             1484.40  1565.60  1603.26  1679.86  1689.81
                             1741.32  1760.50  1772.34  1811.45  1831.59
                             1836.13  1874.14  1891.25  1903.90  1930.86
                             1960.73  2002.63  2012.66  2022.60  2043.73
                             2046.81  2052.24  2062.97  2067.02  2071.59
                             2076.93  2624.47  4608.32  4621.72  4634.99
                             4642.80  4674.34  4696.37  4698.49  4765.12
                             4773.51  4799.97  4805.02  4811.88  4812.69
                             4827.08  4830.83  4833.18

 Zero-point correction=                           0.235756 (Hartree/Particle)
 Thermal correction to Energy=                    0.245102
 Thermal correction to Enthalpy=                  0.246046
 Thermal correction to Gibbs Free Energy=         0.200761
 Sum of electronic and zero-point Energies=           -518.506185
 Sum of electronic and thermal Energies=              -518.496839
 Sum of electronic and thermal Enthalpies=            -518.495895
 Sum of electronic and thermal Free Energies=         -518.541179

                     E (Thermal)             CV                S
                      KCal/Mol        Cal/Mol-Kelvin    Cal/Mol-Kelvin
 Total                  153.804             36.800             95.310
 Electronic               0.000              0.000              0.000
 Translational            0.889              2.981             41.084
 Rotational               0.889              2.981             30.422
 Vibrational            152.026             30.838             23.804
 Vibration     1          0.596              1.976              4.709
 Vibration     2          0.616              1.909              2.754
 Vibration     3          0.624              1.885              2.483
 Vibration     4          0.636              1.845              2.167
 Vibration     5          0.671              1.737              1.629
 Vibration     6          0.693              1.672              1.411
 Vibration     7          0.706              1.634              1.306
 Vibration     8          0.738              1.544              1.101
 Vibration     9          0.749              1.515              1.043
 Vibration    10          0.771              1.457              0.940
 Vibration    11          0.836              1.294              0.710
 Vibration    12          0.885              1.184              0.587

 Normal termination of Gaussian 16 at Mon Mar  6 10:45:44 2023.
