 Gaussian 16, Revision C.01,
 Gaussian 16:  ES64L-G16RevC.01  3-Jul-2019

 ----------------------------------------------------------------------
 #p pop=(regular,nbo,savenbos) freq=noraman def2svp empiricaldispersion
 =gd3bj output=wfx pbe1pbe
 ----------------------------------------------------------------------

 ----------------------------------------
 SOWTUW_Complex_3_Ligand_0_ON_Cu_oriented
 ----------------------------------------
 Symbolic Z-matrix:
 Charge = -1 Multiplicity = 1

                         Standard orientation:
 ---------------------------------------------------------------------
 Center     Atomic      Atomic             Coordinates (Angstroms)
 Number     Number       Type             X           Y           Z
 ---------------------------------------------------------------------
      1          8           0        1.661949   -2.229520   -0.017071
      2          6           0        2.271231   -1.080015   -0.004156
      3          6           0       -2.457026    1.268661   -0.370769
      4          1           0       -2.103598    1.469082   -1.251711
      5          1           0       -2.016112    1.846434    0.271668
      6          7           0       -0.730726   -0.597170   -0.036718
      7          6           0       -4.934855   -1.138605    0.392551
      8          1           0       -4.755710   -2.066347    0.611351
      9          1           0       -5.895300   -0.999973    0.424308
     10          6           0       -4.701594    0.634143   -1.350650
     11          1           0       -5.656772    0.799143   -1.310455
     12          6           0       -4.411388   -0.827756   -1.014897
     13          1           0       -4.861891   -1.407508   -1.666072
     14          6           0       -4.520682    1.248146    1.055837
     15          1           0       -5.474398    1.421005    1.081528
     16          1           0       -4.087432    1.830963    1.699539
     17          6           0       -2.731461   -0.477492    1.387337
     18          1           0       -2.551467   -1.396302    1.636877
     19          1           0       -2.291504    0.101267    2.029217
     20          6           0       -2.897936   -1.076078   -1.061717
     21          1           0       -2.562031   -0.867905   -1.947694
     22          1           0       -2.716998   -2.012484   -0.882119
     23          6           0       -2.178270   -0.204384   -0.021360
     24          6           0       -4.244535   -0.222096    1.411959
     25          1           0       -4.592227   -0.410160    2.308175
     26          6           0        0.165348    0.329450   -0.045701
     27          1           0       -0.151075    1.204336   -0.060460
     28          6           0       -3.978419    1.529953   -0.349480
     29          1           0       -4.146071    2.467798   -0.576919
     30          6           0        1.610571    0.171844   -0.036166
     31         17           0        4.549412   -2.550925    0.005102
     32         17           0        4.613181    2.849887    0.009679
     33          6           0        2.352113    1.370329   -0.052638
     34          6           0        3.722143    1.342616    0.000106
     35          6           0        3.696711   -1.037542    0.018837
     36          6           0        4.415008    0.137277    0.045999
     37          1           0        5.343662    0.125411    0.093521
     38          1           0        1.909310    2.185660   -0.099172
     39          1           0       -4.396726    0.832886   -2.249811
 ---------------------------------------------------------------------

 SCF Done:  E(RPBE1PBE) =  -1706.79229227     A.U. after   18 cycles

 The electronic state is 1-A.
 Alpha  occ. eigenvalues -- -101.55045-101.53167 -18.96904 -14.22832 -10.14584
 Alpha  occ. eigenvalues --  -10.13642 -10.12870 -10.12836 -10.12601 -10.12422
 Alpha  occ. eigenvalues --  -10.12254 -10.11398 -10.10983 -10.10872 -10.10803
 Alpha  occ. eigenvalues --  -10.09706 -10.09362 -10.09285 -10.08926 -10.08925
 Alpha  occ. eigenvalues --  -10.08230  -9.40226  -9.38328  -7.14323  -7.13405
 Alpha  occ. eigenvalues --   -7.13382  -7.12443  -7.11514  -7.11458  -0.81936
 Alpha  occ. eigenvalues --   -0.81255  -0.77843  -0.77232  -0.73752  -0.71035
 Alpha  occ. eigenvalues --   -0.70969  -0.69932  -0.67872  -0.63161  -0.61739
 Alpha  occ. eigenvalues --   -0.61477  -0.57440  -0.54277  -0.52872  -0.52799
 Alpha  occ. eigenvalues --   -0.49524  -0.47452  -0.46586  -0.43978  -0.40543
 Alpha  occ. eigenvalues --   -0.40038  -0.39532  -0.39372  -0.38069  -0.36128
 Alpha  occ. eigenvalues --   -0.35363  -0.35117  -0.34094  -0.33630  -0.32675
 Alpha  occ. eigenvalues --   -0.32488  -0.32114  -0.31154  -0.28670  -0.27761
 Alpha  occ. eigenvalues --   -0.26747  -0.26385  -0.25701  -0.25277  -0.25069
 Alpha  occ. eigenvalues --   -0.24946  -0.23894  -0.22015  -0.21889  -0.21362
 Alpha  occ. eigenvalues --   -0.20498  -0.20188  -0.19474  -0.17115  -0.16853
 Alpha  occ. eigenvalues --   -0.15809  -0.11351  -0.11201  -0.05623  -0.03920
 Alpha virt. eigenvalues --    0.10395   0.15050   0.16602   0.18197   0.18858
 Alpha virt. eigenvalues --    0.19049   0.19552   0.19718   0.21308   0.21675
 Alpha virt. eigenvalues --    0.21905   0.23241   0.23889   0.23969   0.25410

 Mulliken charges:
               1
     1  O   -0.390480
     2  C    0.186750
     3  C    0.234348
     4  H   -0.042797
     5  H   -0.025317
     6  N   -0.155466
     7  C    0.250432
     8  H   -0.046271
     9  H   -0.063879
    10  C    0.256463
    11  H   -0.062266
    12  C   -0.198431
    13  H   -0.052858
    14  C    0.246056
    15  H   -0.061799
    16  H   -0.051380
    17  C    0.340828
    18  H   -0.042063
    19  H   -0.059703
    20  C    0.333843
    21  H   -0.055191
    22  H   -0.041750
    23  C   -0.349397
    24  C   -0.198725
    25  H   -0.052860
    26  C    0.135349
    27  H   -0.155304
    28  C   -0.145296
    29  H   -0.058288
    30  C   -0.122379
    31  Cl  -0.149427
    32  Cl  -0.197255
    33  C    0.111262
    34  C    0.003535
    35  C   -0.070987
    36  C    0.131307
    37  H   -0.164716
    38  H   -0.163686
    39  H   -0.052201
 Sum of Mulliken charges =  -1.00000

 Dipole moment (field-independent basis, Debye):
    X=            -10.0953    Y=              4.9237    Z=              0.0814  Tot=             11.2323
 Quadrupole moment (field-independent basis, Debye-Ang):
   XX=           -186.0169   YY=           -162.3869   ZZ=           -139.6374
   XY=              3.5411   XZ=              0.1326   YZ=             -0.1905

  Exact polarizability:     295.548       6.450     202.934       0.730      -0.304     125.511
 Approx polarizability:     365.817      24.421     339.943       1.594      -0.525     189.731

 Summary of Natural Population Analysis:

                                       Natural Population
                Natural  -----------------------------------------------
    Atom  No    Charge         Core      Valence    Rydberg      Total
 -----------------------------------------------------------------------
      O    1   -0.69873      1.99980     6.69099    0.00794     8.69873
      C    2    0.37168      1.99867     3.58752    0.04212     5.62832
      C    3   -0.41213      1.99901     4.39492    0.01821     6.41213
      H    4    0.19633      0.00000     0.79954    0.00413     0.80367
      H    5    0.19257      0.00000     0.80343    0.00400     0.80743
      N    6   -0.49546      1.99933     5.47447    0.02167     7.49546
      C    7   -0.37742      1.99907     4.36149    0.01686     6.37742
      H    8    0.18922      0.00000     0.80704    0.00374     0.81078
      H    9    0.18042      0.00000     0.81569    0.00389     0.81958
      C   10   -0.37831      1.99907     4.36235    0.01689     6.37831
      H   11    0.18130      0.00000     0.81478    0.00392     0.81870
      C   12   -0.19003      1.99908     4.17397    0.01698     6.19003
      H   13    0.18619      0.00000     0.80956    0.00425     0.81381
      C   14   -0.37635      1.99907     4.36051    0.01678     6.37635
      H   15    0.18060      0.00000     0.81552    0.00388     0.81940
      H   16    0.18663      0.00000     0.80966    0.00371     0.81337
      C   17   -0.38066      1.99899     4.35999    0.02168     6.38066
      H   18    0.20125      0.00000     0.79384    0.00492     0.79875
      H   19    0.19226      0.00000     0.80401    0.00373     0.80774
      C   20   -0.38079      1.99899     4.35981    0.02200     6.38079
      H   21    0.19330      0.00000     0.80258    0.00411     0.80670
      H   22    0.20343      0.00000     0.79191    0.00466     0.79657
      C   23    0.15829      1.99899     3.81745    0.02527     5.84171
      C   24   -0.18906      1.99908     4.17312    0.01686     6.18906
      H   25    0.18496      0.00000     0.81075    0.00429     0.81504
      C   26    0.13761      1.99900     3.83470    0.02869     5.86239
      H   27    0.10502      0.00000     0.88664    0.00834     0.89498
      C   28   -0.18270      1.99908     4.16688    0.01674     6.18270
      H   29    0.18403      0.00000     0.81145    0.00452     0.81597
      C   30   -0.18114      1.99892     4.16334    0.01889     6.18114
     Cl   31   -0.05018      9.99958     7.03293    0.01767    17.05018
     Cl   32   -0.09312      9.99961     7.07751    0.01599    17.09312
      C   33   -0.18864      1.99889     4.17272    0.01703     6.18864
      C   34   -0.08565      1.99870     4.06490    0.02205     6.08565
      C   35   -0.07920      1.99868     4.05543    0.02509     6.07920
      C   36   -0.22736      1.99879     4.21082    0.01775     6.22736
      H   37    0.18423      0.00000     0.81119    0.00458     0.81577
      H   38    0.17041      0.00000     0.82502    0.00458     0.82959
      H   39    0.18721      0.00000     0.80899    0.00380     0.81279
 =======================================================================
   * Total *   -1.00000     57.98039   111.51740    0.50220   170.00000

 ******   24 imaginary frequencies (negative Signs) ******

                      1                      2                      3
                      A                      A                      A
 Frequencies --  -1384.4290             -1364.7719             -1357.2976
 Red. masses --      1.0459                 1.0565                 1.0478
 Frc consts  --      1.1811                 1.1594                 1.1373
 IR Inten    --      5.3477                25.6360                 8.4871

                      4                      5                      6
                      A                      A                      A
 Frequencies --  -1062.0627             -1061.7362             -1058.9846
 Red. masses --      1.0211                 1.0192                 1.0302
 Frc consts  --      0.6786                 0.6769                 0.6807
 IR Inten    --      0.5434                 0.2529                 4.0721

                      7                      8                      9
                      A                      A                      A
 Frequencies --  -1058.0391             -1052.1520             -1048.6694
 Red. masses --      1.0285                 1.0260                 1.0263
 Frc consts  --      0.6784                 0.6692                 0.6649
 IR Inten    --      1.0119                 0.8752                 0.7910

                     10                     11                     12
                      A                      A                      A
 Frequencies --   -930.1361              -888.2593              -665.7554
 Red. masses --      1.0532                 1.0784                 1.1883
 Frc consts  --      0.5368                 0.5013                 0.3103
 IR Inten    --      1.3893                 8.7886                 0.0772

                     13                     14                     15
                      A                      A                      A
 Frequencies --   -577.7353              -561.2343              -551.9373
 Red. masses --      1.1635                 1.1850                 1.1946
 Frc consts  --      0.2288                 0.2199                 0.2144
 IR Inten    --      1.8800                 1.1698                 0.2209

                     16                     17                     18
                      A                      A                      A
 Frequencies --   -540.1871              -528.8652              -509.4577
 Red. masses --      1.4726                 1.4816                 1.3492
 Frc consts  --      0.2532                 0.2442                 0.2063
 IR Inten    --      2.3332                 0.2418                 2.7328

                     19                     20                     21
                      A                      A                      A
 Frequencies --   -502.2915              -482.9996              -468.9484
 Red. masses --      1.3395                 1.3006                 1.3667
 Frc consts  --      0.1991                 0.1788                 0.1771
 IR Inten    --      3.3473                 8.1091                 0.6220

                     22                     23                     24
                      A                      A                      A
 Frequencies --   -437.9365              -383.9185              -366.8246
 Red. masses --      1.0388                 1.2663                 1.2364
 Frc consts  --      0.1174                 0.1100                 0.0980
 IR Inten    --      0.3773                 3.5969                 3.8350

                     25                     26                     27
                      A                      A                      A
 Frequencies --     88.7129               102.4970               125.1380
 Red. masses --     11.2747                 1.5129                 3.2858
 Frc consts  --      0.0523                 0.0094                 0.0303
 IR Inten    --      1.7084                 0.0909                 1.8139

                     28                     29                     30
                      A                      A                      A
 Frequencies --    140.1694               150.2839               156.9164
 Red. masses --      7.3637                 1.7855                 4.7541
 Frc consts  --      0.0852                 0.0238                 0.0690
 IR Inten    --      0.7487                 0.5565                 0.7167

                     31                     32                     33
                      A                      A                      A
 Frequencies --    172.0763               208.4189               232.4448
 Red. masses --      1.9174                 8.5820                10.1031
 Frc consts  --      0.0335                 0.2196                 0.3216
 IR Inten    --      0.0404                 0.0922                 1.5866

                     34                     35                     36
                      A                      A                      A
 Frequencies --    323.7561               325.3294               333.7640
 Red. masses --      8.2054                 4.0218                 1.4524
 Frc consts  --      0.5067                 0.2508                 0.0953
 IR Inten    --      1.0822                 0.0871                 2.2320

                     37                     38                     39
                      A                      A                      A
 Frequencies --    352.2328               370.5517               400.9907
 Red. masses --      1.2200                 1.2176                 6.7355
 Frc consts  --      0.0892                 0.0985                 0.6381
 IR Inten    --      1.6024                 2.7569                 1.2657

                     40                     41                     42
                      A                      A                      A
 Frequencies --    403.1267               443.7849               466.6574
 Red. masses --      9.1726                 8.0661                10.9107
 Frc consts  --      0.8783                 0.9360                 1.3999
 IR Inten    --      0.4007                 8.2531                 5.5412

                     43                     44                     45
                      A                      A                      A
 Frequencies --    492.8959               520.9947               527.5575
 Red. masses --      5.2151                 2.5479                 2.6400
 Frc consts  --      0.7465                 0.4075                 0.4329
 IR Inten    --      0.6052                 0.3214                 0.8262

                     46                     47                     48
                      A                      A                      A
 Frequencies --    540.2105               583.0756               619.6723
 Red. masses --      4.0209                 5.5409                11.2908
 Frc consts  --      0.6913                 1.1099                 2.5545
 IR Inten    --      2.1491                30.5722                 0.0310

                     49                     50                     51
                      A                      A                      A
 Frequencies --    646.3515               676.3634               685.8816
 Red. masses --     11.4405                 3.2766                 2.9794
 Frc consts  --      2.8160                 0.8831                 0.8258
 IR Inten    --      0.0542                 1.6840                 1.6998

                     52                     53                     54
                      A                      A                      A
 Frequencies --    705.0431               743.1563               744.3553
 Red. masses --      7.2147                 2.3908                 2.7032
 Frc consts  --      2.1130                 0.7779                 0.8824
 IR Inten    --      9.9236                 0.5885                 2.5928

                     55                     56                     57
                      A                      A                      A
 Frequencies --    747.7674               774.0747               786.8948
 Red. masses --      3.2943                 6.4340                 4.6102
 Frc consts  --      1.0853                 2.2714                 1.6819
 IR Inten    --      4.4981                41.2762                36.8667

                     58                     59                     60
                      A                      A                      A
 Frequencies --    815.7380               820.9780               824.0038
 Red. masses --      3.0285                 3.1893                 2.8185
 Frc consts  --      1.1874                 1.2665                 1.1275
 IR Inten    --      1.9077                 4.0824                 1.3605

                     61                     62                     63
                      A                      A                      A
 Frequencies --    847.7395               867.1413               891.9482
 Red. masses --     11.5925                 6.2234                 3.7093
 Frc consts  --      4.9085                 2.7571                 1.7387
 IR Inten    --      9.3003                20.1947                 0.0348

                     64                     65                     66
                      A                      A                      A
 Frequencies --    893.4673               918.9921               928.1094
 Red. masses --      3.6887                 5.3912                 4.0946
 Frc consts  --      1.7349                 2.6826                 2.0781
 IR Inten    --      0.0260                29.5443                27.4122

                     67                     68                     69
                      A                      A                      A
 Frequencies --    950.8956               953.0260               974.1426
 Red. masses --      1.1236                 1.1296                 1.1373
 Frc consts  --      0.5986                 0.6045                 0.6359
 IR Inten    --      0.3455                 0.3698                15.5294

                     70                     71                     72
                      A                      A                      A
 Frequencies --    977.3142               978.2797               987.6602
 Red. masses --      1.1594                 1.1288                 1.6304
 Frc consts  --      0.6524                 0.6365                 0.9370
 IR Inten    --     15.7890                19.8036                16.7993

                     73                     74                     75
                      A                      A                      A
 Frequencies --   1014.9039              1042.1044              1046.7442
 Red. masses --      7.7564                 5.3998                 5.9236
 Frc consts  --      4.7072                 3.4550                 3.8240
 IR Inten    --      3.1248                 7.4716                 5.7172

                     76                     77                     78
                      A                      A                      A
 Frequencies --   1059.6941              1128.9227              1200.2431
 Red. masses --      3.8533                 2.8080                 4.8632
 Frc consts  --      2.5494                 2.1085                 4.1278
 IR Inten    --      8.4840                85.5400                12.5480

                     79                     80                     81
                      A                      A                      A
 Frequencies --   1209.3577              1213.5773              1222.3185
 Red. masses --      4.8761                 5.6398                 5.6398
 Frc consts  --      4.2018                 4.8938                 4.9646
 IR Inten    --      3.8953                19.2238                 3.6096

                     82                     83                     84
                      A                      A                      A
 Frequencies --   1227.1296              1242.8741              1246.1631
 Red. masses --      5.9322                 6.1510                 7.7490
 Frc consts  --      5.2632                 5.5982                 7.0900
 IR Inten    --      1.7372                24.9581                79.0246

                     85                     86                     87
                      A                      A                      A
 Frequencies --   1265.4209              1283.3956              1322.4031
 Red. masses --      6.1077                 7.1526                 9.7202
 Frc consts  --      5.7623                 6.9412                10.0150
 IR Inten    --     30.1615                48.5139                17.2814

                     88                     89                     90
                      A                      A                      A
 Frequencies --   1421.4918              1439.7173              1505.8754
 Red. masses --     11.7080                10.4872                10.3491
 Frc consts  --     13.9387                12.8075                13.8271
 IR Inten    --    223.6784                88.8073               125.0471

                     91                     92                     93
                      A                      A                      A
 Frequencies --   1610.9818              1639.7041              1674.8804
 Red. masses --     10.9979                10.7560                10.5972
 Frc consts  --     16.8167                17.0385                17.5149
 IR Inten    --     34.7798               348.6476               169.1189

                     94                     95                     96
                      A                      A                      A
 Frequencies --   4336.1041              4356.4625              4358.9114
 Red. masses --      1.0874                 1.0872                 1.0872
 Frc consts  --     12.0456                12.1565                12.1711
 IR Inten    --     28.5985                28.2063                25.5999

                     97                     98                     99
                      A                      A                      A
 Frequencies --   4408.8689              4412.0807              4413.8983
 Red. masses --      1.0599                 1.0595                 1.0593
 Frc consts  --     12.1388                12.1514                12.1596
 IR Inten    --     30.4078                28.7627                36.6545

                    100                    101                    102
                      A                      A                      A
 Frequencies --   4415.7753              4418.4265              4428.4594
 Red. masses --      1.0599                 1.0601                 1.0601
 Frc consts  --     12.1768                12.1938                12.2494
 IR Inten    --     33.3854                11.1047                 9.6961

                    103                    104                    105
                      A                      A                      A
 Frequencies --   4529.4303              4531.5618              4534.3754
 Red. masses --      1.1087                 1.1090                 1.1092
 Frc consts  --     13.4014                13.4178                13.4368
 IR Inten    --     12.1584                15.2448                22.5965

                    106                    107                    108
                      A                      A                      A
 Frequencies --   4537.1932              4539.7891              4550.9940
 Red. masses --      1.1091                 1.1093                 1.1091
 Frc consts  --     13.4522                13.4700                13.5342
 IR Inten    --      9.0434                 7.8604                 6.9264

                    109                    110                    111
                      A                      A                      A
 Frequencies --   4999.0307              5035.4346              5043.0943
 Red. masses --      1.0861                 1.0895                 1.0890
 Frc consts  --     15.9923                16.2761                16.3181
 IR Inten    --     15.4114                 0.4231                 0.6634

 - Thermochemistry -
 -------------------
 Temperature   298.150 Kelvin.  Pressure   1.00000 Atm.
 Atom     1 has atomic number  8 and mass  15.99491

 Molecular mass:   322.07654 amu.
 Principal axes and moments of inertia in atomic units:
                           1         2         3
     Eigenvalues --  3452.72935********************
           X            1.00000  -0.00080  -0.00005
           Y            0.00080   1.00000  -0.00033
           Z            0.00005   0.00033   1.00000
 This molecule is an asymmetric top.
 Rotational symmetry number  1.
 Warning -- assumption of classical behavior for rotation
           may cause significant error
 Rotational temperatures (Kelvin)      0.02509     0.00548     0.00475
 Rotational constants (GHZ):           0.52270     0.11416     0.09907
   24 imaginary frequencies ignored.
 Zero-point vibrational energy     819970.6 (Joules/Mol)
                                  195.97767 (Kcal/Mol)
 Warning -- explicit consideration of  24 degrees of freedom as
           vibrations may cause significant error
 Vibrational temperatures:    127.64   147.47   180.05   201.67   216.23
          (Kelvin)            225.77   247.58   299.87   334.44   465.81
                              468.08   480.21   506.78   533.14   576.94
                              580.01   638.51   671.42   709.17   749.60
                              759.04   777.24   838.92   891.57   929.96
                              973.14   986.83  1014.40  1069.24  1070.96
                             1075.87  1113.72  1132.17  1173.66  1181.20
                             1185.56  1219.71  1247.62  1283.31  1285.50
                             1322.22  1335.34  1368.13  1371.19  1401.57
                             1406.14  1407.53  1421.02  1460.22  1499.36
                             1506.03  1524.66  1624.27  1726.88  1740.00
                             1746.07  1758.64  1765.57  1788.22  1792.95
                             1820.66  1846.52  1902.64  2045.21  2071.43
                             2166.62  2317.84  2359.17  2409.78  6238.69
                             6267.98  6271.50  6343.38  6348.00  6350.62
                             6353.32  6357.13  6371.57  6516.84  6519.91
                             6523.95  6528.01  6531.74  6547.87  7192.49
                             7244.87  7255.89

 Zero-point correction=                           0.312310 (Hartree/Particle)
 Thermal correction to Energy=                    0.327130
 Thermal correction to Enthalpy=                  0.328074
 Thermal correction to Gibbs Free Energy=         0.270471
 Sum of electronic and zero-point Energies=          -1706.479982
 Sum of electronic and thermal Energies=             -1706.465162
 Sum of electronic and thermal Enthalpies=           -1706.464218
 Sum of electronic and thermal Free Energies=        -1706.521821

                     E (Thermal)             CV                S
                      KCal/Mol        Cal/Mol-Kelvin    Cal/Mol-Kelvin
 Total                  205.277             61.752            121.236
 Electronic               0.000              0.000              0.000
 Translational            0.889              2.981             43.204
 Rotational               0.889              2.981             35.251
 Vibrational            203.500             55.790             42.780
 Vibration     1          0.602              1.957              3.688
 Vibration     2          0.605              1.947              3.406
 Vibration     3          0.610              1.928              3.019
 Vibration     4          0.615              1.913              2.802
 Vibration     5          0.618              1.902              2.669
 Vibration     6          0.621              1.895              2.587
 Vibration     7          0.626              1.877              2.413
 Vibration     8          0.642              1.828              2.057
 Vibration     9          0.653              1.791              1.860
 Vibration    10          0.708              1.628              1.291
 Vibration    11          0.709              1.625              1.283
 Vibration    12          0.715              1.608              1.242
 Vibration    13          0.729              1.571              1.156
 Vibration    14          0.743              1.533              1.078
 Vibration    15          0.767              1.468              0.959
 Vibration    16          0.769              1.463              0.951
 Vibration    17          0.803              1.375              0.815
 Vibration    18          0.824              1.324              0.747
 Vibration    19          0.849              1.266              0.676
 Vibration    20          0.876              1.204              0.608
 Vibration    21          0.883              1.189              0.593
 Vibration    22          0.895              1.161              0.565
 Vibration    23          0.940              1.068              0.480
 Vibration    24          0.980              0.990              0.417

 Normal termination of Gaussian 16 at Mon Mar  6 11:46:19 2023.
