 Gaussian 16, Revision C.01,
 Gaussian 16:  ES64L-G16RevC.01  3-Jul-2019

 ----------------------------------------------------------------------
 #p pop=(regular,nbo,savenbos) freq=noraman def2svp empiricaldispersion
 =gd3bj output=wfx pbe1pbe
 ----------------------------------------------------------------------

 ----------------------------------------
 SOWVAE_Complex_3_Ligand_0_ON_Cu_oriented
 ----------------------------------------
 Symbolic Z-matrix:
 Charge = -1 Multiplicity = 1

                         Standard orientation:
 ---------------------------------------------------------------------
 Center     Atomic      Atomic             Coordinates (Angstroms)
 Number     Number       Type             X           Y           Z
 ---------------------------------------------------------------------
      1          8           0       -0.805043   -2.265453   -0.018499
      2          7           0        1.567273   -0.613684   -0.034240
      3          6           0       -1.430883   -1.128615    0.001196
      4          6           0       -0.777176    0.136323   -0.019812
      5          6           0        0.661341    0.295696   -0.031582
      6          1           0        0.973544    1.183101   -0.037840
      7          6           0        3.008612   -0.199528   -0.023487
      8          6           0        3.745333   -1.084456   -1.046193
      9          1           0        3.408881   -0.894592   -1.946964
     10          1           0        3.572746   -2.028137   -0.847860
     11          6           0        3.271394    1.271021   -0.397006
     12          1           0        2.816475    1.861333    0.239539
     13          1           0        2.916459    1.454074   -1.291689
     14          6           0        3.560648   -0.441688    1.389630
     15          1           0        3.108550    0.149566    2.026564
     16          1           0        3.389001   -1.367957    1.657354
     17          6           0        5.522101    0.645646   -1.358907
     18          1           0        6.485395    0.826079   -1.319760
     19          6           0        5.252442   -0.815048   -0.996231
     20          1           0        5.714441   -1.405751   -1.642809
     21          6           0        4.783922    1.548412   -0.372466
     22          1           0        4.943854    2.494104   -0.615508
     23          6           0        5.072382   -0.168091    1.413613
     24          1           0        5.423577   -0.339134    2.324051
     25          6           0        5.775248   -1.096567    0.413663
     26          1           0        5.601898   -2.031589    0.651121
     27          1           0        6.743220   -0.946095    0.444593
     28          6           0        5.333564    1.292854    1.035194
     29          1           0        4.893743    1.887398    1.678443
     30          1           0        6.296292    1.475077    1.055288
     31         35           0       -3.776037   -2.745362   -0.000007
     32         35           0       -3.879282    2.915935   -0.000549
     33          6           0       -2.852258   -1.094356    0.023511
     34          6           0       -3.583167    0.075637    0.046541
     35          1           0       -4.522908    0.054843    0.087209
     36          6           0       -2.895199    1.286803    0.007705
     37          6           0       -1.529066    1.325584   -0.036471
     38          1           0       -1.087610    2.154230   -0.077189
     39          1           0        5.212624    0.825057   -2.270785
 ---------------------------------------------------------------------

 SCF Done:  E(RPBE1PBE) =  -5934.12474741     A.U. after   17 cycles

 The electronic state is 1-A.
 Alpha  occ. eigenvalues -- -483.07096-483.04998 -62.50460 -62.48339 -56.29431
 Alpha  occ. eigenvalues --  -56.29116 -56.29108 -56.27321 -56.27000 -56.26979
 Alpha  occ. eigenvalues --  -18.97662 -14.23190 -10.14915 -10.13935 -10.13134
 Alpha  occ. eigenvalues --  -10.13034 -10.12971 -10.12897 -10.12680 -10.11781
 Alpha  occ. eigenvalues --  -10.11359 -10.11278 -10.11176 -10.10240 -10.10153
 Alpha  occ. eigenvalues --  -10.09754 -10.09709 -10.09350 -10.08828  -8.65063
 Alpha  occ. eigenvalues --   -8.62932  -6.46467  -6.45309  -6.45276  -6.44365
 Alpha  occ. eigenvalues --   -6.43180  -6.43107  -2.55037  -2.54703  -2.54676
 Alpha  occ. eigenvalues --   -2.53746  -2.53746  -2.52932  -2.52597  -2.52540
 Alpha  occ. eigenvalues --   -2.51587  -2.51585  -0.82340  -0.81627  -0.78237
 Alpha  occ. eigenvalues --   -0.75403  -0.71118  -0.71078  -0.69799  -0.69253
 Alpha  occ. eigenvalues --   -0.66749  -0.62626  -0.61724  -0.61429  -0.57602
 Alpha  occ. eigenvalues --   -0.54471  -0.52873  -0.52823  -0.49755  -0.47502
 Alpha  occ. eigenvalues --   -0.46644  -0.43996  -0.40604  -0.40055  -0.39550
 Alpha  occ. eigenvalues --   -0.39412  -0.37920  -0.36135  -0.35460  -0.35178
 Alpha  occ. eigenvalues --   -0.34205  -0.33600  -0.32582  -0.32495  -0.31658
 Alpha  occ. eigenvalues --   -0.31171  -0.28497  -0.26972  -0.26822  -0.25893
 Alpha  occ. eigenvalues --   -0.25792  -0.25467  -0.25238  -0.24444  -0.22477
 Alpha  occ. eigenvalues --   -0.22167  -0.21703  -0.21569  -0.20238  -0.20073
 Alpha  occ. eigenvalues --   -0.18236  -0.16379  -0.15945  -0.15530  -0.11707
 Alpha  occ. eigenvalues --   -0.11536  -0.06259  -0.04651
 Alpha virt. eigenvalues --    0.09830   0.13690   0.14778   0.16040   0.18143
 Alpha virt. eigenvalues --    0.18494   0.18812   0.19213   0.19452   0.21054
 Alpha virt. eigenvalues --    0.21437   0.21861   0.23060   0.23658   0.24909

 Mulliken charges:
               1
     1  O   -0.381847
     2  N   -0.150449
     3  C    0.181587
     4  C   -0.104574
     5  C    0.124667
     6  H   -0.146439
     7  C   -0.345823
     8  C    0.316946
     9  H   -0.047919
    10  H   -0.035206
    11  C    0.222716
    12  H   -0.018357
    13  H   -0.036721
    14  C    0.322312
    15  H   -0.052689
    16  H   -0.034474
    17  C    0.238956
    18  H   -0.055319
    19  C   -0.199835
    20  H   -0.046766
    21  C   -0.150000
    22  H   -0.051337
    23  C   -0.202411
    24  H   -0.045581
    25  C    0.237601
    26  H   -0.039800
    27  H   -0.057817
    28  C    0.232494
    29  H   -0.045294
    30  H   -0.054978
    31  Br  -0.109720
    32  Br  -0.145658
    33  C   -0.147441
    34  C    0.133144
    35  H   -0.136674
    36  C   -0.078345
    37  C    0.100855
    38  H   -0.143835
    39  H   -0.045966
 Sum of Mulliken charges =  -1.00000

 Dipole moment (field-independent basis, Debye):
    X=              6.7170    Y=              5.0640    Z=              0.0803  Tot=              8.4124
 Quadrupole moment (field-independent basis, Debye-Ang):
   XX=           -186.9853   YY=           -175.3850   ZZ=           -152.0055
   XY=              0.0540   XZ=             -0.0033   YZ=             -0.1647

  Exact polarizability:     313.628      -5.719     227.480      -0.529      -0.152     134.316
 Approx polarizability:     388.772     -25.500     369.311      -1.332      -0.029     205.789

 Summary of Natural Population Analysis:

                                       Natural Population
                Natural  -----------------------------------------------
    Atom  No    Charge         Core      Valence    Rydberg      Total
 -----------------------------------------------------------------------
      O    1   -0.69398      1.99979     6.68624    0.00794     8.69398
      N    2   -0.49148      1.99932     5.47038    0.02179     7.49148
      C    3    0.37678      1.99865     3.58101    0.04357     5.62322
      C    4   -0.17644      1.99891     4.15825    0.01928     6.17644
      C    5    0.13416      1.99901     3.83787    0.02896     5.86584
      H    6    0.10870      0.00000     0.88290    0.00841     0.89130
      C    7    0.15664      1.99898     3.81900    0.02539     5.84336
      C    8   -0.38623      1.99900     4.36530    0.02193     6.38623
      H    9    0.19682      0.00000     0.79909    0.00408     0.80318
      H   10    0.20696      0.00000     0.78845    0.00459     0.79304
      C   11   -0.41886      1.99902     4.40174    0.01810     6.41886
      H   12    0.19621      0.00000     0.79981    0.00398     0.80379
      H   13    0.20038      0.00000     0.79551    0.00411     0.79962
      C   14   -0.38768      1.99900     4.36710    0.02159     6.38768
      H   15    0.19571      0.00000     0.80060    0.00369     0.80429
      H   16    0.20539      0.00000     0.78974    0.00487     0.79461
      C   17   -0.38409      1.99908     4.36809    0.01692     6.38409
      H   18    0.18498      0.00000     0.81113    0.00389     0.81502
      C   19   -0.19581      1.99908     4.17970    0.01703     6.19581
      H   20    0.19090      0.00000     0.80481    0.00429     0.80910
      C   21   -0.18858      1.99908     4.17266    0.01684     6.18858
      H   22    0.18929      0.00000     0.80617    0.00454     0.81071
      C   23   -0.19531      1.99908     4.17929    0.01694     6.19531
      H   24    0.19060      0.00000     0.80508    0.00432     0.80940
      C   25   -0.38367      1.99908     4.36773    0.01686     6.38367
      H   26    0.19314      0.00000     0.80313    0.00372     0.80686
      H   27    0.18385      0.00000     0.81228    0.00387     0.81615
      C   28   -0.38322      1.99908     4.36736    0.01678     6.38322
      H   29    0.19031      0.00000     0.80597    0.00372     0.80969
      H   30    0.18473      0.00000     0.81140    0.00387     0.81527
     Br   31    0.01113     27.99916     6.96752    0.02218    34.98887
     Br   32   -0.03067     27.99921     7.01222    0.01924    35.03067
      C   33   -0.16801      1.99870     4.14599    0.02333     6.16801
      C   34   -0.21556      1.99876     4.19871    0.01809     6.21556
      H   35    0.19093      0.00000     0.80533    0.00374     0.80907
      C   36   -0.17008      1.99871     4.15037    0.02100     6.17008
      C   37   -0.18545      1.99887     4.16916    0.01742     6.18545
      H   38    0.17689      0.00000     0.81898    0.00413     0.82311
      H   39    0.19063      0.00000     0.80560    0.00377     0.80937
 =======================================================================
   * Total *   -1.00000     93.97957   111.51166    0.50877   206.00000

 ******   23 imaginary frequencies (negative Signs) ******

                      1                      2                      3
                      A                      A                      A
 Frequencies --  -1285.1252             -1253.4600             -1245.9429
 Red. masses --      1.0452                 1.0527                 1.0409
 Frc consts  --      1.0170                 0.9745                 0.9520
 IR Inten    --      8.7893                20.3903                 5.6881

                      4                      5                      6
                      A                      A                      A
 Frequencies --   -971.3174              -969.6396              -967.3363
 Red. masses --      1.0242                 1.0241                 1.0321
 Frc consts  --      0.5693                 0.5673                 0.5690
 IR Inten    --      0.7607                 0.3492                 3.2665

                      7                      8                      9
                      A                      A                      A
 Frequencies --   -966.2541              -962.9060              -960.5745
 Red. masses --      1.0285                 1.0277                 1.0283
 Frc consts  --      0.5658                 0.5614                 0.5590
 IR Inten    --      0.6378                 0.5498                 0.8775

                     10                     11                     12
                      A                      A                      A
 Frequencies --   -764.0337              -717.7134              -486.6815
 Red. masses --      1.0658                 1.1050                 1.4004
 Frc consts  --      0.3666                 0.3354                 0.1954
 IR Inten    --      0.7680                 8.7775                 0.4915

                     13                     14                     15
                      A                      A                      A
 Frequencies --   -445.9450              -442.1927              -435.9631
 Red. masses --      1.3493                 1.4486                 1.4630
 Frc consts  --      0.1581                 0.1669                 0.1638
 IR Inten    --      1.0047                 0.6776                 0.9895

                     16                     17                     18
                      A                      A                      A
 Frequencies --   -423.4131              -412.0065              -329.1356
 Red. masses --      1.7178                 1.7067                 1.4090
 Frc consts  --      0.1814                 0.1707                 0.0899
 IR Inten    --      0.6632                 0.2006                 0.7851

                     19                     20                     21
                      A                      A                      A
 Frequencies --   -322.5404              -291.2144              -273.7496
 Red. masses --      1.4009                 1.4624                 1.2148
 Frc consts  --      0.0859                 0.0731                 0.0536
 IR Inten    --      0.8908                 8.4569                 0.1619

                     22                     23                     24
                      A                      A                      A
 Frequencies --   -161.2481               -49.6996                63.1359
 Red. masses --      1.0511                 1.5593                 3.0514
 Frc consts  --      0.0161                 0.0023                 0.0072
 IR Inten    --      1.2007                 5.5533                 4.8229

                     25                     26                     27
                      A                      A                      A
 Frequencies --     89.9295               109.2899               130.4280
 Red. masses --      5.7181                16.5908                10.4037
 Frc consts  --      0.0272                 0.1168                 0.1043
 IR Inten    --      0.4121                 0.3536                 0.7972

                     28                     29                     30
                      A                      A                      A
 Frequencies --    179.1993               200.4294               204.6885
 Red. masses --      2.5548                 5.8658                 7.6795
 Frc consts  --      0.0483                 0.1388                 0.1896
 IR Inten    --      1.2557                 0.8164                 0.5565

                     31                     32                     33
                      A                      A                      A
 Frequencies --    272.3102               313.2912               324.6474
 Red. masses --      7.9968                 6.0673                 4.3173
 Frc consts  --      0.3494                 0.3509                 0.2681
 IR Inten    --      0.5786                 0.5226                 1.2508

                     34                     35                     36
                      A                      A                      A
 Frequencies --    328.3550               346.0014               350.5345
 Red. masses --      1.7115                 1.9348                 1.7706
 Frc consts  --      0.1087                 0.1365                 0.1282
 IR Inten    --      0.4714                 0.4792                 0.8084

                     37                     38                     39
                      A                      A                      A
 Frequencies --    411.2322               414.7568               455.2546
 Red. masses --      5.0821                 7.8294                 5.2322
 Frc consts  --      0.5064                 0.7935                 0.6389
 IR Inten    --      1.3927                 0.5409                13.6318

                     40                     41                     42
                      A                      A                      A
 Frequencies --    483.8995               498.7921               502.6362
 Red. masses --      1.3152                 1.3661                 1.2948
 Frc consts  --      0.1815                 0.2002                 0.1927
 IR Inten    --      0.4037                 2.3994                 2.0427

                     43                     44                     45
                      A                      A                      A
 Frequencies --    509.2066               581.6866               583.4955
 Red. masses --      4.1045                 2.0898                 2.1269
 Frc consts  --      0.6270                 0.4166                 0.4266
 IR Inten    --      0.7109                 5.4710                 1.1183

                     46                     47                     48
                      A                      A                      A
 Frequencies --    591.6047               592.3722               617.3265
 Red. masses --      3.0162                 2.1959                11.0214
 Frc consts  --      0.6220                 0.4540                 2.4747
 IR Inten    --     18.2420                 9.0629                 0.1121

                     49                     50                     51
                      A                      A                      A
 Frequencies --    638.6284               685.7054               702.1198
 Red. masses --     11.6470                 6.5353                 2.8845
 Frc consts  --      2.7987                 1.8105                 0.8378
 IR Inten    --      0.0684                33.9683                 7.4681

                     52                     53                     54
                      A                      A                      A
 Frequencies --    706.2124               741.3978               764.0095
 Red. masses --      2.6484                 5.5215                 3.5993
 Frc consts  --      0.7782                 1.7882                 1.2378
 IR Inten    --      2.5420                33.6275                11.2876

                     55                     56                     57
                      A                      A                      A
 Frequencies --    775.0595               776.1693               789.9915
 Red. masses --      2.4262                 2.3000                 3.6897
 Frc consts  --      0.8587                 0.8164                 1.3567
 IR Inten    --      1.5521                 1.2054                11.8824

                     58                     59                     60
                      A                      A                      A
 Frequencies --    848.3992               854.1453               860.1036
 Red. masses --     10.1860                 2.7990                 2.4269
 Frc consts  --      4.3197                 1.2032                 1.0578
 IR Inten    --     11.2840                 5.8584                 0.1714

                     61                     62                     63
                      A                      A                      A
 Frequencies --    871.5197               880.9221               913.6447
 Red. masses --      4.6975                 2.2065                 4.3716
 Frc consts  --      2.1022                 1.0088                 2.1500
 IR Inten    --     17.1079                 0.1069                13.1028

                     64                     65                     66
                      A                      A                      A
 Frequencies --    915.0529               916.6564               947.7448
 Red. masses --      3.2321                 3.2395                 3.2435
 Frc consts  --      1.5945                 1.6037                 1.7165
 IR Inten    --      2.8231                 2.0304                18.6140

                     67                     68                     69
                      A                      A                      A
 Frequencies --    994.4849              1025.9299              1027.2722
 Red. masses --      7.2123                 1.1633                 1.3600
 Frc consts  --      4.2026                 0.7214                 0.8456
 IR Inten    --      1.3934                 0.9115                 0.1474

                     70                     71                     72
                      A                      A                      A
 Frequencies --   1030.1538              1034.1766              1038.1102
 Red. masses --      1.7336                 1.5409                 1.4590
 Frc consts  --      1.0839                 0.9710                 0.9264
 IR Inten    --      1.2712                 6.3776                 7.7082

                     73                     74                     75
                      A                      A                      A
 Frequencies --   1043.1237              1069.2838              1072.6357
 Red. masses --      1.3734                 2.2884                 2.5670
 Frc consts  --      0.8805                 1.5416                 1.7401
 IR Inten    --     69.8860                15.3652                13.0527

                     76                     77                     78
                      A                      A                      A
 Frequencies --   1085.0514              1146.8620              1216.3301
 Red. masses --      2.6562                 1.7457                 4.9865
 Frc consts  --      1.8425                 1.3529                 4.3466
 IR Inten    --     10.5760                61.3579                29.1701

                     79                     80                     81
                      A                      A                      A
 Frequencies --   1217.3356              1227.0421              1232.6682
 Red. masses --      4.4923                 4.7440                 5.5659
 Frc consts  --      3.9223                 4.2084                 4.9829
 IR Inten    --      1.9525                 9.4217                 9.5055

                     82                     83                     84
                      A                      A                      A
 Frequencies --   1234.7458              1236.3890              1244.6933
 Red. masses --      7.8703                 5.7775                 5.6656
 Frc consts  --      7.0696                 5.2036                 5.1716
 IR Inten    --     72.6001                10.5150                 1.6761

                     85                     86                     87
                      A                      A                      A
 Frequencies --   1267.6026              1278.6432              1319.9686
 Red. masses --      5.4618                 6.4079                 9.5694
 Frc consts  --      5.1707                 6.1726                 9.8235
 IR Inten    --     10.6322                23.4088                21.4057

                     88                     89                     90
                      A                      A                      A
 Frequencies --   1431.5129              1439.8575              1492.3922
 Red. masses --     11.9430                10.4420                10.1640
 Frc consts  --     14.4196                12.7548                13.3377
 IR Inten    --    199.8879               111.3583               112.5842

                     91                     92                     93
                      A                      A                      A
 Frequencies --   1594.6589              1646.8787              1696.0875
 Red. masses --     11.0048                10.8277                10.7489
 Frc consts  --     16.4880                17.3025                18.2184
 IR Inten    --     24.8523               271.7921               316.2847

                     94                     95                     96
                      A                      A                      A
 Frequencies --   4224.8750              4230.5085              4237.0360
 Red. masses --      1.0873                 1.0873                 1.0871
 Frc consts  --     11.4348                11.4649                11.4989
 IR Inten    --     29.7137                29.2413                29.4425

                     97                     98                     99
                      A                      A                      A
 Frequencies --   4291.6112              4293.2741              4295.6050
 Red. masses --      1.0598                 1.0594                 1.0599
 Frc consts  --     11.5000                11.5049                11.5235
 IR Inten    --     27.7316                22.3677                70.7466

                    100                    101                    102
                      A                      A                      A
 Frequencies --   4298.2343              4304.4852              4308.7605
 Red. masses --      1.0597                 1.0600                 1.0601
 Frc consts  --     11.5348                11.5715                11.5954
 IR Inten    --     15.2297                15.1236                 7.4642

                    103                    104                    105
                      A                      A                      A
 Frequencies --   4407.7429              4408.5388              4409.4076
 Red. masses --      1.1087                 1.1091                 1.1091
 Frc consts  --     12.6915                12.6999                12.7053
 IR Inten    --      9.2336                 6.1705                38.7756

                    106                    107                    108
                      A                      A                      A
 Frequencies --   4415.0814              4422.2035              4425.8964
 Red. masses --      1.1089                 1.1092                 1.1093
 Frc consts  --     12.7361                12.7807                12.8025
 IR Inten    --      9.7670                 7.2053                 8.1058

                    109                    110                    111
                      A                      A                      A
 Frequencies --   4857.8285              4890.5019              4897.4575
 Red. masses --      1.0859                 1.0897                 1.0892
 Frc consts  --     15.0985                15.3559                15.3915
 IR Inten    --     17.4293                 1.5333                 0.3230

 - Thermochemistry -
 -------------------
 Temperature   298.150 Kelvin.  Pressure   1.00000 Atm.
 Atom     1 has atomic number  8 and mass  15.99491

 Molecular mass:   409.97551 amu.
 Principal axes and moments of inertia in atomic units:
                           1         2         3
     Eigenvalues --  6154.07098********************
           X            0.99999   0.00391   0.00002
           Y           -0.00391   0.99999  -0.00008
           Z           -0.00002   0.00008   1.00000
 This molecule is an asymmetric top.
 Rotational symmetry number  1.
 Warning -- assumption of classical behavior for rotation
           may cause significant error
 Rotational temperatures (Kelvin)      0.01407     0.00415     0.00334
 Rotational constants (GHZ):           0.29326     0.08652     0.06950
   23 imaginary frequencies ignored.
 Zero-point vibrational energy     817677.0 (Joules/Mol)
                                  195.42950 (Kcal/Mol)
 Warning -- explicit consideration of  25 degrees of freedom as
           vibrations may cause significant error
 Vibrational temperatures:     90.84   129.39   157.24   187.66   257.83
          (Kelvin)            288.37   294.50   391.79   450.76   467.10
                              472.43   497.82   504.34   591.67   596.74
                              655.01   696.22   717.65   723.18   732.63
                              836.92   839.52   851.19   852.29   888.20
                              918.84   986.58  1010.19  1016.08  1066.71
                             1099.24  1115.14  1116.73  1136.62  1220.66
                             1228.92  1237.50  1253.92  1267.45  1314.53
                             1316.56  1318.86  1363.59  1430.84  1476.08
                             1478.02  1482.16  1487.95  1493.61  1500.82
                             1538.46  1543.28  1561.15  1650.08  1750.03
                             1751.47  1765.44  1773.53  1776.52  1778.89
                             1790.84  1823.80  1839.68  1899.14  2059.63
                             2071.63  2147.22  2294.36  2369.49  2440.29
                             6078.65  6086.76  6096.15  6174.67  6177.06
                             6180.42  6184.20  6193.19  6199.35  6341.76
                             6342.90  6344.15  6352.32  6362.56  6367.88
                             6989.33  7036.34  7046.35

 Zero-point correction=                           0.311437 (Hartree/Particle)
 Thermal correction to Energy=                    0.325798
 Thermal correction to Enthalpy=                  0.326742
 Thermal correction to Gibbs Free Energy=         0.268954
 Sum of electronic and zero-point Energies=          -5933.813311
 Sum of electronic and thermal Energies=             -5933.798950
 Sum of electronic and thermal Enthalpies=           -5933.798005
 Sum of electronic and thermal Free Energies=        -5933.855793

                     E (Thermal)             CV                S
                      KCal/Mol        Cal/Mol-Kelvin    Cal/Mol-Kelvin
 Total                  204.441             60.902            121.625
 Electronic               0.000              0.000              0.000
 Translational            0.889              2.981             43.924
 Rotational               0.889              2.981             36.453
 Vibrational            202.664             54.940             41.248
 Vibration     1          0.597              1.972              4.357
 Vibration     2          0.602              1.956              3.662
 Vibration     3          0.606              1.942              3.281
 Vibration     4          0.612              1.923              2.940
 Vibration     5          0.629              1.868              2.337
 Vibration     6          0.638              1.839              2.129
 Vibration     7          0.640              1.833              2.091
 Vibration     8          0.675              1.724              1.581
 Vibration     9          0.701              1.648              1.345
 Vibration    10          0.709              1.626              1.287
 Vibration    11          0.712              1.619              1.268
 Vibration    12          0.724              1.583              1.184
 Vibration    13          0.727              1.574              1.164
 Vibration    14          0.775              1.446              0.922
 Vibration    15          0.778              1.438              0.910
 Vibration    16          0.814              1.349              0.780
 Vibration    17          0.840              1.286              0.700
 Vibration    18          0.854              1.253              0.661
 Vibration    19          0.858              1.244              0.652
 Vibration    20          0.864              1.230              0.636
 Vibration    21          0.938              1.071              0.482
 Vibration    22          0.940              1.067              0.479
 Vibration    23          0.949              1.050              0.464
 Vibration    24          0.950              1.048              0.463
 Vibration    25          0.977              0.995              0.421

 Normal termination of Gaussian 16 at Mon Mar  6 11:55:03 2023.
