 Gaussian 16, Revision C.01,
 Gaussian 16:  ES64L-G16RevC.01  3-Jul-2019

 ----------------------------------------------------------------------
 #p pop=(regular,nbo,savenbos) freq=noraman def2svp empiricaldispersion
 =gd3bj output=wfx pbe1pbe
 ----------------------------------------------------------------------

 ----------------------------------------
 SOWVEI_Complex_1_Ligand_0_ON_Cu_oriented
 ----------------------------------------
 Symbolic Z-matrix:
 Charge = -1 Multiplicity = 1

                         Standard orientation:
 ---------------------------------------------------------------------
 Center     Atomic      Atomic             Coordinates (Angstroms)
 Number     Number       Type             X           Y           Z
 ---------------------------------------------------------------------
      1          8           0        0.198202   -2.310457   -0.033806
      2          7           0       -2.186504   -0.681532    0.003602
      3          6           0        0.164679    0.117086   -0.043829
      4          6           0        0.826939   -1.166728   -0.011358
      5          6           0       -1.298057    0.239499   -0.081029
      6          1           0       -1.633087    1.122740   -0.182183
      7          6           0       -3.635365   -0.273415   -0.002464
      8          6           0       -4.492772   -1.499808   -0.307503
      9          1           0       -4.264656   -1.851881   -1.203692
     10          1           0       -4.310098   -2.209356    0.358621
     11          6           0       -6.300190   -0.563850    1.110977
     12          1           0       -7.264578   -0.348841    1.163565
     13          1           0       -6.103480   -1.253517    1.793604
     14          6           0       -3.976506    0.349186    1.348120
     15          1           0       -3.745505   -0.283289    2.074164
     16          1           0       -3.444853    1.174412    1.479007
     17          6           0       -5.988130   -1.118846   -0.263441
     18          1           0       -6.542823   -1.935707   -0.425961
     19          6           0       -3.925708    0.772388   -1.119936
     20          1           0       -3.375945    1.581863   -0.976592
     21          1           0       -3.697483    0.392375   -2.005851
     22          6           0       -6.271779   -0.098202   -1.341324
     23          1           0       -6.044793   -0.473796   -2.230683
     24          6           0       -5.439850    1.142025   -1.075291
     25          6           0       -5.488388    0.689234    1.417205
     26          1           0       -5.724234    1.045863    2.321272
     27          6           0       -5.775699    1.741461    0.333421
     28          1           0       -5.225314    2.547649    0.495980
     29         53           0        3.350722    3.072931   -0.003333
     30          6           0        2.230635   -1.109452   -0.006075
     31          6           0        2.949446    0.072585    0.046369
     32          1           0        3.897641    0.057502    0.094195
     33          6           0        2.266625    1.279295    0.027253
     34          6           0        0.889277    1.307084   -0.029276
     35          1           0        0.432672    2.140055   -0.056893
     36         53           0        3.252146   -2.953924    0.008795
     37          1           0       -5.632639    1.825441   -1.780076
     38          1           0       -6.728852    2.004421    0.366212
     39          1           0       -7.234966    0.133816   -1.339841
 ---------------------------------------------------------------------

 SCF Done:  E(RPBE1PBE) =  -1382.48819813     A.U. after   18 cycles

 The electronic state is 1-A.
 Alpha  occ. eigenvalues --  -18.98410 -14.23740 -10.15368 -10.14056 -10.13741
 Alpha  occ. eigenvalues --  -10.13701 -10.13541 -10.12933 -10.12815 -10.12629
 Alpha  occ. eigenvalues --  -10.12108 -10.11620 -10.11565 -10.10938 -10.10760
 Alpha  occ. eigenvalues --  -10.10645 -10.10581 -10.09888 -10.09723  -6.78397
 Alpha  occ. eigenvalues --   -6.75831  -4.80059  -4.78735  -4.78683  -4.77531
 Alpha  occ. eigenvalues --   -4.76159  -4.76075  -1.82771  -1.82330  -1.82276
 Alpha  occ. eigenvalues --   -1.81144  -1.81144  -1.80222  -1.79773  -1.79706
 Alpha  occ. eigenvalues --   -1.78527  -1.78524  -0.82593  -0.81816  -0.78592
 Alpha  occ. eigenvalues --   -0.74728  -0.71467  -0.70853  -0.69148  -0.65844
 Alpha  occ. eigenvalues --   -0.63999  -0.61758  -0.61329  -0.58077  -0.56132
 Alpha  occ. eigenvalues --   -0.54465  -0.53236  -0.52936  -0.49749  -0.47143
 Alpha  occ. eigenvalues --   -0.46626  -0.44259  -0.40779  -0.40140  -0.39572
 Alpha  occ. eigenvalues --   -0.39417  -0.37972  -0.36282  -0.35664  -0.35135
 Alpha  occ. eigenvalues --   -0.34409  -0.33638  -0.32978  -0.32337  -0.31509
 Alpha  occ. eigenvalues --   -0.30594  -0.28519  -0.27191  -0.26345  -0.26009
 Alpha  occ. eigenvalues --   -0.25715  -0.25279  -0.25153  -0.23338  -0.22319
 Alpha  occ. eigenvalues --   -0.21942  -0.21161  -0.21102  -0.20682  -0.19744
 Alpha  occ. eigenvalues --   -0.16449  -0.15432  -0.15127  -0.13615  -0.11760
 Alpha  occ. eigenvalues --   -0.11636  -0.06745  -0.05352
 Alpha virt. eigenvalues --    0.09180   0.09267   0.13163   0.14449   0.15336
 Alpha virt. eigenvalues --    0.17561   0.18473   0.18695   0.19149   0.20206
 Alpha virt. eigenvalues --    0.20977   0.21762   0.22934   0.23407   0.24692

 Mulliken charges:
               1
     1  O   -0.384204
     2  N   -0.162073
     3  C   -0.090980
     4  C    0.208674
     5  C    0.133299
     6  H   -0.127447
     7  C   -0.348323
     8  C    0.321264
     9  H   -0.039821
    10  H   -0.035324
    11  C    0.221572
    12  H   -0.051872
    13  H   -0.034971
    14  C    0.286302
    15  H   -0.027915
    16  H   -0.042267
    17  C   -0.204900
    18  H   -0.040464
    19  C    0.234913
    20  H   -0.032066
    21  H   -0.029838
    22  C    0.240168
    23  H   -0.038164
    24  C   -0.187063
    25  C   -0.185547
    26  H   -0.038474
    27  C    0.205377
    28  H   -0.036413
    29  I   -0.068444
    30  C   -0.259413
    31  C    0.138975
    32  H   -0.111852
    33  C   -0.197555
    34  C    0.098981
    35  H   -0.125792
    36  I   -0.052753
    37  H   -0.039849
    38  H   -0.046292
    39  H   -0.049447
 Sum of Mulliken charges =  -1.00000

 Dipole moment (field-independent basis, Debye):
    X=             -4.6108    Y=              5.3516    Z=              0.0109  Tot=              7.0640
 Quadrupole moment (field-independent basis, Debye-Ang):
   XX=           -199.5706   YY=           -194.8637   ZZ=           -170.4162
   XY=             -1.9245   XZ=              0.1247   YZ=             -0.0668

  Exact polarizability:     335.307       3.997     265.710       0.640      -0.209     145.960
 Approx polarizability:     416.214      25.503     416.485       1.117      -0.363     225.964

 Summary of Natural Population Analysis:

                                       Natural Population
                Natural  -----------------------------------------------
    Atom  No    Charge         Core      Valence    Rydberg      Total
 -----------------------------------------------------------------------
      O    1   -0.69178      1.99980     6.68423    0.00776     8.69178
      N    2   -0.48306      1.99932     5.46254    0.02120     7.48306
      C    3   -0.16384      1.99890     4.14571    0.01924     6.16384
      C    4    0.37304      1.99858     3.58420    0.04418     5.62696
      C    5    0.13801      1.99903     3.83369    0.02927     5.86199
      H    6    0.11045      0.00000     0.88159    0.00796     0.88955
      C    7    0.14813      1.99896     3.82778    0.02513     5.85187
      C    8   -0.39193      1.99902     4.37078    0.02214     6.39193
      H    9    0.20378      0.00000     0.79211    0.00411     0.79622
      H   10    0.20753      0.00000     0.78792    0.00455     0.79247
      C   11   -0.39491      1.99908     4.37866    0.01717     6.39491
      H   12    0.18830      0.00000     0.80763    0.00407     0.81170
      H   13    0.19763      0.00000     0.79855    0.00383     0.80237
      C   14   -0.40032      1.99901     4.38083    0.02048     6.40032
      H   15    0.20615      0.00000     0.78871    0.00514     0.79385
      H   16    0.19967      0.00000     0.79711    0.00322     0.80033
      C   17   -0.20095      1.99907     4.18444    0.01744     6.20095
      H   18    0.19749      0.00000     0.79827    0.00424     0.80251
      C   19   -0.40323      1.99905     4.38506    0.01912     6.40323
      H   20    0.19505      0.00000     0.80152    0.00343     0.80495
      H   21    0.20235      0.00000     0.79337    0.00428     0.79765
      C   22   -0.39432      1.99908     4.37843    0.01680     6.39432
      H   23    0.19726      0.00000     0.79897    0.00377     0.80274
      C   24   -0.19838      1.99909     4.18243    0.01686     6.19838
      C   25   -0.19596      1.99909     4.17999    0.01688     6.19596
      H   26    0.19537      0.00000     0.80049    0.00415     0.80463
      C   27   -0.38795      1.99910     4.37219    0.01667     6.38795
      H   28    0.19358      0.00000     0.80285    0.00356     0.80642
      I   29    0.05197     45.99781     6.92990    0.02032    52.94803
      C   30   -0.25472      1.99871     4.23123    0.02477     6.25472
      C   31   -0.21213      1.99874     4.19460    0.01879     6.21213
      H   32    0.19442      0.00000     0.80219    0.00340     0.80558
      C   33   -0.26289      1.99875     4.24135    0.02279     6.26289
      C   34   -0.18819      1.99885     4.17154    0.01780     6.18819
      H   35    0.18145      0.00000     0.81464    0.00391     0.81855
      I   36    0.07324     45.99788     6.90547    0.02342    52.92676
      H   37    0.19391      0.00000     0.80171    0.00438     0.80609
      H   38    0.18707      0.00000     0.80909    0.00384     0.81293
      H   39    0.18871      0.00000     0.80727    0.00403     0.81129
 =======================================================================
   * Total *   -1.00000    129.97692   111.50901    0.51407   242.00000

 ******   17 imaginary frequencies (negative Signs) ******

                      1                      2                      3
                      A                      A                      A
 Frequencies --  -1217.7588             -1157.8612             -1147.7240
 Red. masses --      1.0486                 1.0478                 1.0369
 Frc consts  --      0.9162                 0.8276                 0.8048
 IR Inten    --     10.5284                14.3982                 5.6486

                      4                      5                      6
                      A                      A                      A
 Frequencies --   -893.8282              -890.9055              -875.9461
 Red. masses --      1.0306                 1.0343                 1.0279
 Frc consts  --      0.4851                 0.4837                 0.4647
 IR Inten    --      1.7948                 1.2513                 0.5183

                      7                      8                      9
                      A                      A                      A
 Frequencies --   -871.9162              -866.5864              -864.4523
 Red. masses --      1.0334                 1.0291                 1.0399
 Frc consts  --      0.4629                 0.4553                 0.4578
 IR Inten    --      0.6826                 0.3377                 1.2861

                     10                     11                     12
                      A                      A                      A
 Frequencies --   -600.6610              -540.0456              -376.8181
 Red. masses --      1.1132                 1.1616                 1.6228
 Frc consts  --      0.2366                 0.1996                 0.1358
 IR Inten    --      0.4557                 8.1532                 0.2871

                     13                     14                     15
                      A                      A                      A
 Frequencies --   -359.2422              -350.8746              -330.9706
 Red. masses --      1.8096                 1.7548                 1.6654
 Frc consts  --      0.1376                 0.1273                 0.1075
 IR Inten    --      0.0140                 0.2758                 1.5245

                     16                     17                     18
                      A                      A                      A
 Frequencies --   -310.7259              -298.9455                42.1373
 Red. masses --      1.9345                 2.0589                 2.2704
 Frc consts  --      0.1100                 0.1084                 0.0024
 IR Inten    --      0.4871                 0.2114                 2.9271

                     19                     20                     21
                      A                      A                      A
 Frequencies --     70.2669                74.8970                88.3431
 Red. masses --      2.2412                 7.7349                 7.4014
 Frc consts  --      0.0065                 0.0256                 0.0340
 IR Inten    --      0.7807                 1.9758                 2.9882

                     22                     23                     24
                      A                      A                      A
 Frequencies --    112.8063               119.3912               190.8022
 Red. masses --      8.4592                11.1813                 4.6886
 Frc consts  --      0.0634                 0.0939                 0.1006
 IR Inten    --      2.7307                 0.7326                 1.5344

                     25                     26                     27
                      A                      A                      A
 Frequencies --    198.1364               203.7530               261.0014
 Red. masses --      6.1021                 2.1501                 4.4722
 Frc consts  --      0.1411                 0.0526                 0.1795
 IR Inten    --      0.1995                 1.4852                 3.5521

                     28                     29                     30
                      A                      A                      A
 Frequencies --    284.8738               307.7161               326.8946
 Red. masses --      6.9442                 6.0135                 1.2922
 Frc consts  --      0.3320                 0.3355                 0.0814
 IR Inten    --      0.4795                 4.8511                 1.1675

                     31                     32                     33
                      A                      A                      A
 Frequencies --    358.9621               370.5541               393.8616
 Red. masses --      1.6911                 1.1728                 1.4001
 Frc consts  --      0.1284                 0.0949                 0.1280
 IR Inten    --      5.3297                 2.3017                 1.2027

                     34                     35                     36
                      A                      A                      A
 Frequencies --    405.4393               416.1708               434.3234
 Red. masses --      5.9021                 2.1209                 2.2430
 Frc consts  --      0.5716                 0.2164                 0.2493
 IR Inten    --      1.8355                 0.0285                 0.0561

                     37                     38                     39
                      A                      A                      A
 Frequencies --    451.9713               457.5826               465.8406
 Red. masses --      1.8463                 2.0155                 3.9524
 Frc consts  --      0.2222                 0.2486                 0.5053
 IR Inten    --      0.1501                 2.9432                 8.9564

                     40                     41                     42
                      A                      A                      A
 Frequencies --    513.6419               563.7639               580.8507
 Red. masses --      7.0699                 1.3969                 1.4263
 Frc consts  --      1.0990                 0.2616                 0.2835
 IR Inten    --      2.3975                 2.4723                 1.0514

                     43                     44                     45
                      A                      A                      A
 Frequencies --    604.2246               606.7310               608.9338
 Red. masses --      2.6500                 4.6616                 1.5975
 Frc consts  --      0.5700                 1.0111                 0.3490
 IR Inten    --     22.5111                 7.2460                 2.9895

                     46                     47                     48
                      A                      A                      A
 Frequencies --    631.6662               639.2043               652.5738
 Red. masses --     10.2430                 1.5284                 1.4961
 Frc consts  --      2.4080                 0.3679                 0.3754
 IR Inten    --      0.4130                 0.2935                 1.0030

                     49                     50                     51
                      A                      A                      A
 Frequencies --    666.6021               674.1901               721.4838
 Red. masses --      1.5007                 6.8726                 2.6177
 Frc consts  --      0.3929                 1.8405                 0.8028
 IR Inten    --      0.2521                65.1492                 5.1985

                     52                     53                     54
                      A                      A                      A
 Frequencies --    728.2238               738.4912               771.2899
 Red. masses --      2.3548                 3.4151                 3.2106
 Frc consts  --      0.7357                 1.0974                 1.1253
 IR Inten    --      2.8220                17.4910                11.7503

                     55                     56                     57
                      A                      A                      A
 Frequencies --    778.4627               802.7520               811.5939
 Red. masses --      3.9094                 2.3888                 2.3450
 Frc consts  --      1.3958                 0.9070                 0.9101
 IR Inten    --      6.6049                 3.0085                 1.0976

                     58                     59                     60
                      A                      A                      A
 Frequencies --    837.7851               859.3064               885.4255
 Red. masses --     11.4383                 6.1746                 2.0220
 Frc consts  --      4.7302                 2.6863                 0.9340
 IR Inten    --     12.2202                17.0365                 1.2436

                     61                     62                     63
                      A                      A                      A
 Frequencies --    889.4146               910.8500               928.0579
 Red. masses --      1.9473                 5.3284                 2.1613
 Frc consts  --      0.9076                 2.6046                 1.0968
 IR Inten    --      0.3759                23.8563                 0.2370

                     64                     65                     66
                      A                      A                      A
 Frequencies --    939.6151               947.3905               955.9395
 Red. masses --      2.4272                 2.1440                 2.8867
 Frc consts  --      1.2626                 1.1338                 1.5542
 IR Inten    --      0.9706                 0.8061                12.5050

                     67                     68                     69
                      A                      A                      A
 Frequencies --    984.1470              1044.9872              1053.9015
 Red. masses --      5.1775                 3.7588                 3.5035
 Frc consts  --      2.9545                 2.4184                 2.2927
 IR Inten    --      1.5439                 0.5437                 2.4533

                     70                     71                     72
                      A                      A                      A
 Frequencies --   1073.3310              1076.8844              1082.6111
 Red. masses --      2.7439                 2.5126                 1.2911
 Frc consts  --      1.8625                 1.7168                 0.8916
 IR Inten    --     73.4468                30.8607                 2.1276

                     73                     74                     75
                      A                      A                      A
 Frequencies --   1092.3778              1109.8952              1114.6569
 Red. masses --      1.2314                 1.2141                 1.4176
 Frc consts  --      0.8658                 0.8812                 1.0378
 IR Inten    --      1.7806                21.2625                13.1773

                     76                     77                     78
                      A                      A                      A
 Frequencies --   1125.4433              1165.2946              1176.2840
 Red. masses --      1.4565                 3.0008                 1.2563
 Frc consts  --      1.0870                 2.4008                 1.0241
 IR Inten    --      6.4575                 4.8696                32.9823

                     79                     80                     81
                      A                      A                      A
 Frequencies --   1201.4858              1211.9717              1230.3869
 Red. masses --      3.7954                 7.6593                 3.9899
 Frc consts  --      3.2281                 6.6287                 3.5588
 IR Inten    --     19.5880               108.5157                13.6554

                     82                     83                     84
                      A                      A                      A
 Frequencies --   1237.5986              1256.7638              1262.5696
 Red. masses --      4.4747                 4.9503                 5.4579
 Frc consts  --      4.0381                 4.6067                 5.1261
 IR Inten    --      2.5435                 5.9853                 0.7842

                     85                     86                     87
                      A                      A                      A
 Frequencies --   1294.6860              1299.4142              1313.4129
 Red. masses --      5.8138                 8.7491                 6.2361
 Frc consts  --      5.7417                 8.7038                 6.3382
 IR Inten    --      0.5822                41.8125                 3.8388

                     88                     89                     90
                      A                      A                      A
 Frequencies --   1413.7035              1422.3685              1467.2379
 Red. masses --     10.1853                11.7123                10.1968
 Frc consts  --     11.9934                13.9610                12.9335
 IR Inten    --     25.0512               149.1295               248.5421

                     91                     92                     93
                      A                      A                      A
 Frequencies --   1579.1797              1638.1107              1683.3533
 Red. masses --     10.5149                11.2252                10.7948
 Frc consts  --     15.4497                17.7473                18.0225
 IR Inten    --     39.1386               215.2565               361.8679

                     94                     95                     96
                      A                      A                      A
 Frequencies --   4107.4224              4112.8624              4121.1345
 Red. masses --      1.0872                 1.0873                 1.0874
 Frc consts  --     10.8068                10.8360                10.8812
 IR Inten    --     29.9725                29.9632                25.8214

                     97                     98                     99
                      A                      A                      A
 Frequencies --   4163.9212              4179.5503              4182.2223
 Red. masses --      1.0602                 1.0602                 1.0598
 Frc consts  --     10.8301                10.9115                10.9218
 IR Inten    --     42.9678                41.5744                14.9648

                    100                    101                    102
                      A                      A                      A
 Frequencies --   4187.4005              4188.8198              4190.4242
 Red. masses --      1.0591                 1.0598                 1.0603
 Frc consts  --     10.9419                10.9559                10.9699
 IR Inten    --     17.7539                40.5414                 5.9833

                    103                    104                    105
                      A                      A                      A
 Frequencies --   4271.2299              4286.8466              4293.8172
 Red. masses --      1.1086                 1.1082                 1.1091
 Frc consts  --     11.9160                11.9989                12.0475
 IR Inten    --     20.7802                20.4332                 7.1832

                    106                    107                    108
                      A                      A                      A
 Frequencies --   4299.5306              4301.6333              4303.4835
 Red. masses --      1.1093                 1.1093                 1.1093
 Frc consts  --     12.0823                12.0940                12.1047
 IR Inten    --     20.6051                 8.2151                11.5313

                    109                    110                    111
                      A                      A                      A
 Frequencies --   4728.5487              4759.2392              4775.6329
 Red. masses --      1.0858                 1.0893                 1.0897
 Frc consts  --     14.3045                14.5371                14.6432
 IR Inten    --     29.2089                 0.4441                 2.6040

 - Thermochemistry -
 -------------------
 Temperature   298.150 Kelvin.  Pressure   1.00000 Atm.
 Atom     1 has atomic number  8 and mass  15.99491

 Molecular mass:   505.93964 amu.
 Principal axes and moments of inertia in atomic units:
                           1         2         3
     Eigenvalues --  9893.22186********************
           X            0.99998  -0.00655   0.00000
           Y            0.00655   0.99998   0.00037
           Z           -0.00001  -0.00037   1.00000
 This molecule is an asymmetric top.
 Rotational symmetry number  1.
 Warning -- assumption of classical behavior for rotation
           may cause significant error
 Rotational temperatures (Kelvin)      0.00875     0.00352     0.00259
 Rotational constants (GHZ):           0.18242     0.07329     0.05394
   17 imaginary frequencies ignored.
 Zero-point vibrational energy     821535.2 (Joules/Mol)
                                  196.35163 (Kcal/Mol)
 Warning -- explicit consideration of  28 degrees of freedom as
           vibrations may cause significant error
 Vibrational temperatures:     60.63   101.10   107.76   127.11   162.30
          (Kelvin)            171.78   274.52   285.07   293.16   375.52
                              409.87   442.73   470.33   516.47   533.14
                              566.68   583.34   598.78   624.89   650.29
                              658.36   670.24   739.02   811.13   835.71
                              869.34   872.95   876.12   908.83   919.67
                              938.91   959.09   970.01  1038.05  1047.75
                             1062.52  1109.71  1120.03  1154.98  1167.70
                             1205.39  1236.35  1273.93  1279.67  1310.51
                             1335.27  1351.90  1363.08  1375.38  1415.97
                             1503.50  1516.33  1544.28  1549.40  1557.64
                             1571.69  1596.89  1603.74  1619.26  1676.60
                             1692.41  1728.67  1743.76  1770.25  1780.63
                             1808.20  1816.56  1862.76  1869.57  1889.71
                             2034.00  2046.47  2111.03  2272.09  2356.88
                             2421.97  5909.66  5917.49  5929.39  5990.95
                             6013.44  6017.29  6024.74  6026.78  6029.09
                             6145.35  6167.82  6177.85  6186.07  6189.09
                             6191.75  6803.33  6847.48  6871.07

 Zero-point correction=                           0.312906 (Hartree/Particle)
 Thermal correction to Energy=                    0.329662
 Thermal correction to Enthalpy=                  0.330606
 Thermal correction to Gibbs Free Energy=         0.266668
 Sum of electronic and zero-point Energies=          -1382.175292
 Sum of electronic and thermal Energies=             -1382.158536
 Sum of electronic and thermal Enthalpies=           -1382.157592
 Sum of electronic and thermal Free Energies=        -1382.221531

                     E (Thermal)             CV                S
                      KCal/Mol        Cal/Mol-Kelvin    Cal/Mol-Kelvin
 Total                  206.866             68.802            134.571
 Electronic               0.000              0.000              0.000
 Translational            0.889              2.981             44.551
 Rotational               0.889              2.981             37.342
 Vibrational            205.089             62.840             52.678
 Vibration     1          0.595              1.980              5.156
 Vibration     2          0.598              1.968              4.146
 Vibration     3          0.599              1.966              4.020
 Vibration     4          0.601              1.957              3.696
 Vibration     5          0.607              1.939              3.220
 Vibration     6          0.609              1.933              3.110
 Vibration     7          0.634              1.853              2.220
 Vibration     8          0.637              1.842              2.150
 Vibration     9          0.639              1.835              2.099
 Vibration    10          0.669              1.744              1.655
 Vibration    11          0.683              1.702              1.504
 Vibration    12          0.698              1.659              1.375
 Vibration    13          0.711              1.622              1.275
 Vibration    14          0.734              1.557              1.127
 Vibration    15          0.743              1.533              1.077
 Vibration    16          0.761              1.483              0.985
 Vibration    17          0.770              1.458              0.943
 Vibration    18          0.779              1.435              0.905
 Vibration    19          0.795              1.395              0.845
 Vibration    20          0.811              1.357              0.790
 Vibration    21          0.816              1.344              0.773
 Vibration    22          0.823              1.326              0.749
 Vibration    23          0.869              1.220              0.625
 Vibration    24          0.920              1.110              0.516
 Vibration    25          0.938              1.073              0.484
 Vibration    26          0.963              1.023              0.442
 Vibration    27          0.965              1.018              0.438
 Vibration    28          0.968              1.013              0.435

 Normal termination of Gaussian 16 at Mon Mar  6 11:54:03 2023.
