 Gaussian 16, Revision C.01,
 Gaussian 16:  ES64L-G16RevC.01  3-Jul-2019

 ----------------------------------------------------------------------
 #p pop=(regular,nbo,savenbos) freq=noraman def2svp empiricaldispersion
 =gd3bj output=wfx pbe1pbe
 ----------------------------------------------------------------------

 ----------------------------------------
 SUGYIE_Complex_0_Ligand_0_ON_Cu_oriented
 ----------------------------------------
 Symbolic Z-matrix:
 Charge = -1 Multiplicity = 1

                         Standard orientation:
 ---------------------------------------------------------------------
 Center     Atomic      Atomic             Coordinates (Angstroms)
 Number     Number       Type             X           Y           Z
 ---------------------------------------------------------------------
      1          7           0        0.790295    1.074879    0.728940
      2          6           0        2.907139    0.193768   -0.106977
      3          6           0        1.745759    1.045171   -0.121617
      4          1           0        1.681885    1.649852   -0.839067
      5          6           0       -0.404805    1.937811    0.495685
      6          1           0       -0.571196    2.443395    1.329231
      7          6           0       -0.266419    2.956597   -0.636990
      8          1           0        0.500810    3.524870   -0.468169
      9          1           0       -1.069091    3.499312   -0.682474
     10          1           0       -0.142530    2.490344   -1.477723
     11          6           0       -1.594024    1.020727    0.275156
     12          6           0       -1.623461    0.146970   -0.800070
     13          1           0       -0.889698    0.114082   -1.384059
     14          6           0       -2.689760    1.034660    1.135016
     15          1           0       -2.691249    1.614521    1.875046
     16          8           0        2.300058   -1.041816    1.857159
     17          6           0        3.106095   -0.820721    0.856340
     18          6           0        4.244540   -1.644674    0.701295
     19          1           0        4.403808   -2.329407    1.325089
     20          6           0        5.117346   -1.472264   -0.328532
     21          1           0        5.860461   -2.042355   -0.401315
     22          6           0        4.932592   -0.473755   -1.271752
     23          1           0        5.541958   -0.356344   -1.977091
     24          6           0        3.837741    0.337285   -1.147464
     25         17           0       -5.139829   -1.688497   -0.460110
     26          6           0       -2.705110   -0.672870   -1.030216
     27          1           0       -2.713434   -1.247210   -1.774429
     28          6           0       -3.773210   -0.643889   -0.164734
     29          6           0       -3.777320    0.207278    0.915049
     30          1           0       -4.513572    0.225991    1.499266
     31          1           0        3.703787    1.015208   -1.783416
 ---------------------------------------------------------------------

 SCF Done:  E(RPBE1PBE) =  -1167.77265398     A.U. after   17 cycles

 The electronic state is 1-A.
 Alpha  occ. eigenvalues -- -101.59349 -18.94661 -14.21455 -10.19566 -10.14092
 Alpha  occ. eigenvalues --  -10.13777 -10.13598 -10.13497 -10.13128 -10.12629
 Alpha  occ. eigenvalues --  -10.10034 -10.09337 -10.08669 -10.06488 -10.05958
 Alpha  occ. eigenvalues --  -10.05365 -10.04641 -10.03539  -9.44560  -7.18669
 Alpha  occ. eigenvalues --   -7.17721  -7.17705  -0.82721  -0.79770  -0.78269
 Alpha  occ. eigenvalues --   -0.76251  -0.70609  -0.69538  -0.68971  -0.65013
 Alpha  occ. eigenvalues --   -0.62337  -0.58503  -0.56792  -0.55997  -0.52524
 Alpha  occ. eigenvalues --   -0.48915  -0.47274  -0.44635  -0.42195  -0.41389
 Alpha  occ. eigenvalues --   -0.40553  -0.38867  -0.37326  -0.36913  -0.36432
 Alpha  occ. eigenvalues --   -0.33526  -0.32444  -0.32392  -0.31822  -0.30423
 Alpha  occ. eigenvalues --   -0.29473  -0.28703  -0.27239  -0.26331  -0.25061
 Alpha  occ. eigenvalues --   -0.24370  -0.24173  -0.23728  -0.21283  -0.18606
 Alpha  occ. eigenvalues --   -0.18432  -0.18066  -0.15764  -0.14976  -0.10145
 Alpha  occ. eigenvalues --   -0.09824  -0.03176  -0.02297
 Alpha virt. eigenvalues --    0.08406   0.08838   0.12870   0.14951   0.18924
 Alpha virt. eigenvalues --    0.19139   0.20485   0.21713   0.22122   0.22902
 Alpha virt. eigenvalues --    0.23689   0.24328   0.25075   0.26252   0.26552

 Mulliken charges:
               1
     1  N   -0.195440
     2  C   -0.091555
     3  C    0.110159
     4  H   -0.170029
     5  C    0.114255
     6  H   -0.062073
     7  C    0.186927
     8  H   -0.015149
     9  H   -0.040796
    10  H   -0.025298
    11  C   -0.002192
    12  C    0.106302
    13  H   -0.091414
    14  C    0.074912
    15  H   -0.109974
    16  O   -0.426519
    17  C    0.158773
    18  C   -0.001394
    19  H   -0.155541
    20  C    0.101876
    21  H   -0.135248
    22  C    0.024565
    23  H   -0.147909
    24  C    0.070670
    25  Cl  -0.148507
    26  C    0.108252
    27  H   -0.114017
    28  C    0.042277
    29  C    0.101967
    30  H   -0.117953
    31  H   -0.149926
 Sum of Mulliken charges =  -1.00000

 Dipole moment (field-independent basis, Debye):
    X=             -8.8431    Y=              4.0726    Z=             -4.3303  Tot=             10.6555
 Quadrupole moment (field-independent basis, Debye-Ang):
   XX=           -169.2878   YY=           -117.6402   ZZ=           -122.1961
   XY=              3.2627   XZ=            -10.9456   YZ=              4.9598

  Exact polarizability:     264.629     -14.965     152.879     -25.909      -1.356     138.282
 Approx polarizability:     343.636     -16.020     234.735     -63.291      -0.063     251.854

 Summary of Natural Population Analysis:

                                       Natural Population
                Natural  -----------------------------------------------
    Atom  No    Charge         Core      Valence    Rydberg      Total
 -----------------------------------------------------------------------
      N    1   -0.50307      1.99933     5.48404    0.01969     7.50307
      C    2   -0.21973      1.99890     4.20156    0.01927     6.21973
      C    3    0.12620      1.99901     3.84698    0.02781     5.87380
      H    4    0.10290      0.00000     0.88843    0.00867     0.89710
      C    5   -0.01647      1.99894     3.99472    0.02281     6.01647
      H    6    0.18303      0.00000     0.81252    0.00446     0.81697
      C    7   -0.58050      1.99917     4.57181    0.00951     6.58050
      H    8    0.19323      0.00000     0.80374    0.00302     0.80677
      H    9    0.18917      0.00000     0.80787    0.00297     0.81083
      H   10    0.18574      0.00000     0.81134    0.00292     0.81426
      C   11   -0.00132      1.99898     3.98163    0.02071     6.00132
      C   12   -0.14391      1.99897     4.12942    0.01552     6.14391
      H   13    0.18477      0.00000     0.81179    0.00344     0.81523
      C   14   -0.16371      1.99898     4.14971    0.01502     6.16371
      H   15    0.17578      0.00000     0.82107    0.00315     0.82422
      O   16   -0.71714      1.99980     6.70951    0.00783     8.71714
      C   17    0.40168      1.99885     3.55965    0.03982     5.59832
      C   18   -0.26633      1.99900     4.24721    0.02013     6.26633
      H   19    0.16536      0.00000     0.82914    0.00550     0.83464
      C   20   -0.18691      1.99912     4.17324    0.01455     6.18691
      H   21    0.15157      0.00000     0.84459    0.00384     0.84843
      C   22   -0.30161      1.99910     4.28516    0.01735     6.30161
      H   23    0.15684      0.00000     0.83982    0.00335     0.84316
      C   24   -0.15906      1.99907     4.14488    0.01511     6.15906
     Cl   25   -0.05498      9.99960     7.03973    0.01565    17.05498
      C   26   -0.19345      1.99891     4.17848    0.01605     6.19345
      H   27    0.18510      0.00000     0.81127    0.00364     0.81490
      C   28   -0.02835      1.99870     4.00675    0.02290     6.02835
      C   29   -0.19976      1.99892     4.18491    0.01594     6.19976
      H   30    0.18266      0.00000     0.81367    0.00367     0.81734
      H   31    0.15230      0.00000     0.84349    0.00421     0.84770
 =======================================================================
   * Total *   -1.00000     43.98335    91.62813    0.38852   136.00000

 ******   23 imaginary frequencies (negative Signs) ******

                      1                      2                      3
                      A                      A                      A
 Frequencies --  -1392.4027             -1335.0488             -1314.9733
 Red. masses --      1.0802                 1.0674                 1.0493
 Frc consts  --      1.2339                 1.1209                 1.0691
 IR Inten    --     67.1215                52.4099                 1.2966

                      4                      5                      6
                      A                      A                      A
 Frequencies --  -1300.1750             -1293.7198             -1286.0158
 Red. masses --      1.0088                 1.0473                 1.0552
 Frc consts  --      1.0047                 1.0328                 1.0282
 IR Inten    --      0.0708                 6.5825                13.6708

                      7                      8                      9
                      A                      A                      A
 Frequencies --  -1203.0288             -1151.9525             -1136.2704
 Red. masses --      1.0308                 1.0193                 1.0405
 Frc consts  --      0.8790                 0.7970                 0.7915
 IR Inten    --      0.5402                 0.3559                 0.2300

                     10                     11                     12
                      A                      A                      A
 Frequencies --  -1121.2715              -937.7667              -930.0537
 Red. masses --      1.0352                 1.0574                 1.0527
 Frc consts  --      0.7669                 0.5479                 0.5365
 IR Inten    --      0.3080                 7.0794                15.5253

                     13                     14                     15
                      A                      A                      A
 Frequencies --   -853.4104              -812.8117              -780.8392
 Red. masses --      1.0816                 1.1465                 1.1538
 Frc consts  --      0.4641                 0.4463                 0.4145
 IR Inten    --      0.6750                 5.4245                 2.7949

                     16                     17                     18
                      A                      A                      A
 Frequencies --   -764.7283              -714.4714              -682.7250
 Red. masses --      1.0520                 1.1546                 1.0947
 Frc consts  --      0.3625                 0.3473                 0.3006
 IR Inten    --     12.4242                 0.7995                14.5652

                     19                     20                     21
                      A                      A                      A
 Frequencies --   -652.5880              -568.3412              -492.2201
 Red. masses --      1.1562                 1.0360                 1.2598
 Frc consts  --      0.2901                 0.1972                 0.1798
 IR Inten    --      7.1535                 9.3224                 1.0963

                     22                     23                     24
                      A                      A                      A
 Frequencies --   -203.2580              -105.6926                88.4846
 Red. masses --      2.8640                 4.6386                12.3460
 Frc consts  --      0.0697                 0.0305                 0.0570
 IR Inten    --      7.3422                 3.6904                 2.5179

                     25                     26                     27
                      A                      A                      A
 Frequencies --    123.4559               144.8272               175.1308
 Red. masses --      9.5090                 9.1330                 8.1250
 Frc consts  --      0.0854                 0.1129                 0.1468
 IR Inten    --      0.2302                 1.4977                 0.3957

                     28                     29                     30
                      A                      A                      A
 Frequencies --    198.2564               263.4491               280.1706
 Red. masses --      7.3144                 8.7354                 7.5237
 Frc consts  --      0.1694                 0.3572                 0.3480
 IR Inten    --      0.1613                 3.5195                 1.2420

                     31                     32                     33
                      A                      A                      A
 Frequencies --    319.4985               346.2848               407.2373
 Red. masses --      7.4272                 5.3753                 6.7955
 Frc consts  --      0.4467                 0.3798                 0.6640
 IR Inten    --      1.1931                 2.4034                 7.7783

                     34                     35                     36
                      A                      A                      A
 Frequencies --    449.9437               478.0449               483.4430
 Red. masses --      8.4090                 8.0532                 4.4764
 Frc consts  --      1.0030                 1.0843                 0.6164
 IR Inten    --      4.6795                 1.8080                 8.8346

                     37                     38                     39
                      A                      A                      A
 Frequencies --    527.9111               531.8055               548.7385
 Red. masses --      4.1066                 1.5049                 7.8114
 Frc consts  --      0.6743                 0.2508                 1.3858
 IR Inten    --      4.1951                14.9409                18.0409

                     40                     41                     42
                      A                      A                      A
 Frequencies --    608.4307               612.2605               635.0776
 Red. masses --     10.3907                 5.0375                 5.1584
 Frc consts  --      2.2663                 1.1126                 1.2258
 IR Inten    --      0.4243                 9.1436                10.3999

                     43                     44                     45
                      A                      A                      A
 Frequencies --    645.5338               660.1794               689.1156
 Red. masses --      9.8961                 8.5465                 2.8998
 Frc consts  --      2.4297                 2.1946                 0.8114
 IR Inten    --      0.9357                 2.0042                 7.1740

                     46                     47                     48
                      A                      A                      A
 Frequencies --    736.0368               779.7815               798.9030
 Red. masses --      4.8472                 3.3992                 3.6034
 Frc consts  --      1.5472                 1.2178                 1.3550
 IR Inten    --      8.4073                 0.5731                14.5439

                     49                     50                     51
                      A                      A                      A
 Frequencies --    810.3920               826.1950               850.5698
 Red. masses --      3.1455                 2.9793                 9.7708
 Frc consts  --      1.2171                 1.1982                 4.1649
 IR Inten    --      0.8979                25.4196                 9.9517

                     52                     53                     54
                      A                      A                      A
 Frequencies --    856.4875               917.5627               930.0555
 Red. masses --      2.5938                 5.3985                 2.8063
 Frc consts  --      1.1211                 2.6779                 1.4302
 IR Inten    --      2.3696                 1.9016                36.2610

                     55                     56                     57
                      A                      A                      A
 Frequencies --    946.4811               973.5654              1061.0359
 Red. masses --      3.4684                 5.3665                 2.7269
 Frc consts  --      1.8306                 2.9969                 1.8087
 IR Inten    --     77.2171                 8.0645                36.0849

                     58                     59                     60
                      A                      A                      A
 Frequencies --   1074.7017              1097.5059              1109.0456
 Red. masses --      1.6031                 1.6662                 3.4810
 Frc consts  --      1.0909                 1.1825                 2.5227
 IR Inten    --     10.8872                14.8004                 7.3074

                     61                     62                     63
                      A                      A                      A
 Frequencies --   1248.3931              1261.8563              1322.3662
 Red. masses --      7.7378                 7.6381                 8.7203
 Frc consts  --      7.1051                 7.1657                 8.9843
 IR Inten    --     19.3813                41.3219                34.0402

                     64                     65                     66
                      A                      A                      A
 Frequencies --   1410.3352              1447.7101              1452.1077
 Red. masses --      8.8683                 9.4839                10.2382
 Frc consts  --     10.3929                11.7112                12.7195
 IR Inten    --      3.8704                32.9273                68.5967

                     67                     68                     69
                      A                      A                      A
 Frequencies --   1461.2866              1463.7279              1544.4830
 Red. masses --      9.1263                 9.1593                 9.4768
 Frc consts  --     11.4820                11.5620                13.3192
 IR Inten    --    126.5454                56.0450               185.4081

                     70                     71                     72
                      A                      A                      A
 Frequencies --   1656.1567              1665.8293              1678.2647
 Red. masses --     10.3642                11.1055                10.5980
 Frc consts  --     16.7490                18.1572                17.5871
 IR Inten    --    333.0941                 2.6061               117.0567

                     73                     74                     75
                      A                      A                      A
 Frequencies --   1704.4298              1721.7143              4249.7158
 Red. masses --      9.9859                10.5835                 1.0877
 Frc consts  --     17.0922                18.4842                11.5734
 IR Inten    --      2.5111               387.1388                27.3712

                     76                     77                     78
                      A                      A                      A
 Frequencies --   4352.9016              4547.6440              4557.9537
 Red. masses --      1.0319                 1.1067                 1.1064
 Frc consts  --     11.5200                13.4848                13.5432
 IR Inten    --     11.6141                 9.4095                 4.9207

                     79                     80                     81
                      A                      A                      A
 Frequencies --   4854.1280              4883.0362              4891.7729
 Red. masses --      1.0858                 1.0855                 1.0876
 Frc consts  --     15.0732                15.2497                15.3338
 IR Inten    --     27.0696                 3.9223                 7.2201

                     82                     83                     84
                      A                      A                      A
 Frequencies --   4893.2888              4898.9987              4900.5758
 Red. masses --      1.0877                 1.0891                 1.0900
 Frc consts  --     15.3450                15.4001                15.4233
 IR Inten    --      0.5106                 0.1272                20.8436

                     85                     86                     87
                      A                      A                      A
 Frequencies --   4904.3635              4907.0471              4924.6087
 Red. masses --      1.0913                 1.0926                 1.0902
 Frc consts  --     15.4655                15.5004                15.5770
 IR Inten    --      0.2889                20.0705                 0.4320

 - Thermochemistry -
 -------------------
 Temperature   298.150 Kelvin.  Pressure   1.00000 Atm.
 Atom     1 has atomic number  7 and mass  14.00307

 Molecular mass:   258.06857 amu.
 Principal axes and moments of inertia in atomic units:
                           1         2         3
     Eigenvalues --  2355.19738********************
           X            0.99989  -0.01242  -0.00828
           Y            0.01228   0.99977  -0.01747
           Z            0.00850   0.01736   0.99981
 This molecule is an asymmetric top.
 Rotational symmetry number  1.
 Warning -- assumption of classical behavior for rotation
           may cause significant error
 Rotational temperatures (Kelvin)      0.03678     0.00760     0.00703
 Rotational constants (GHZ):           0.76628     0.15829     0.14652
   23 imaginary frequencies ignored.
 Zero-point vibrational energy     632766.5 (Joules/Mol)
                                  151.23482 (Kcal/Mol)
 Warning -- explicit consideration of  18 degrees of freedom as
           vibrations may cause significant error
 Vibrational temperatures:    127.31   177.63   208.37   251.97   285.25
          (Kelvin)            379.04   403.10   459.69   498.23   585.92
                              647.37   687.80   695.57   759.55   765.15
                              789.51   875.40   880.91   913.74   928.78
                              949.85   991.48  1058.99  1121.93  1149.44
                             1165.97  1188.71  1223.78  1232.29  1320.17
                             1338.14  1361.78  1400.74  1526.59  1546.26
                             1579.07  1595.67  1796.16  1815.53  1902.59
                             2029.16  2082.93  2089.26  2102.47  2105.98
                             2222.17  2382.84  2396.76  2414.65  2452.29
                             2477.16  6114.39  6262.85  6543.05  6557.88
                             6984.01  7025.60  7038.17  7040.35  7048.57
                             7050.84  7056.29  7060.15  7085.41

 Zero-point correction=                           0.241008 (Hartree/Particle)
 Thermal correction to Energy=                    0.252165
 Thermal correction to Enthalpy=                  0.253109
 Thermal correction to Gibbs Free Energy=         0.202784
 Sum of electronic and zero-point Energies=          -1167.531646
 Sum of electronic and thermal Energies=             -1167.520489
 Sum of electronic and thermal Enthalpies=           -1167.519545
 Sum of electronic and thermal Free Energies=        -1167.569870

                     E (Thermal)             CV                S
                      KCal/Mol        Cal/Mol-Kelvin    Cal/Mol-Kelvin
 Total                  158.236             45.345            105.919
 Electronic               0.000              0.000              0.000
 Translational            0.889              2.981             42.544
 Rotational               0.889              2.981             34.158
 Vibrational            156.458             39.383             29.217
 Vibration     1          0.601              1.957              3.693
 Vibration     2          0.610              1.929              3.046
 Vibration     3          0.616              1.908              2.739
 Vibration     4          0.627              1.873              2.380
 Vibration     5          0.637              1.842              2.149
 Vibration     6          0.670              1.740              1.639
 Vibration     7          0.680              1.710              1.533
 Vibration     8          0.705              1.636              1.313
 Vibration     9          0.724              1.583              1.183
 Vibration    10          0.772              1.454              0.936
 Vibration    11          0.809              1.361              0.796
 Vibration    12          0.835              1.299              0.715
 Vibration    13          0.840              1.287              0.701
 Vibration    14          0.883              1.188              0.592
 Vibration    15          0.887              1.180              0.583
 Vibration    16          0.904              1.142              0.547
 Vibration    17          0.967              1.014              0.435
 Vibration    18          0.971              1.006              0.429

 Normal termination of Gaussian 16 at Mon Mar  6 11:06:36 2023.
