 Gaussian 16, Revision C.01,
 Gaussian 16:  ES64L-G16RevC.01  3-Jul-2019

 ----------------------------------------------------------------------
 #p pop=(regular,nbo,savenbos) freq=noraman def2svp empiricaldispersion
 =gd3bj output=wfx pbe1pbe
 ----------------------------------------------------------------------

 ----------------------------------------
 SUGYOK_Complex_1_Ligand_0_ON_Cu_oriented
 ----------------------------------------
 Symbolic Z-matrix:
 Charge = -1 Multiplicity = 1

                         Standard orientation:
 ---------------------------------------------------------------------
 Center     Atomic      Atomic             Coordinates (Angstroms)
 Number     Number       Type             X           Y           Z
 ---------------------------------------------------------------------
      1          6           0        3.742572   -0.821536    0.923187
      2          6           0        4.772343   -1.795081    0.807703
      3          1           0        4.888047   -2.433427    1.502283
      4          7           0        1.554740    1.206598    0.660112
      5          6           0        5.605033   -1.835666   -0.287044
      6          1           0        6.275995   -2.506570   -0.343511
      7          6           0        5.475370   -0.899284   -1.319390
      8          1           0        6.060503   -0.919708   -2.066987
      9          6           0        4.485768    0.051913   -1.232483
     10          1           0        4.407351    0.699038   -1.923647
     11          6           0        3.583399    0.096575   -0.153932
     12          6           0        2.497298    1.050702   -0.218463
     13          1           0        2.470884    1.619356   -0.979597
     14          8           0        3.003858   -0.825230    1.995011
     15         35           0       -4.795380   -1.130392   -0.227259
     16          6           0        0.436978    2.137827    0.372121
     17          6           0       -0.836109    1.309383    0.265394
     18          6           0       -1.911982    1.540278    1.111545
     19          1           0       -1.844830    2.207341    1.784702
     20          6           0       -3.088534    0.805758    0.986722
     21          1           0       -3.817975    0.956209    1.576070
     22          6           0       -3.175649   -0.149921   -0.015937
     23          6           0       -2.116409   -0.410347   -0.875022
     24          1           0       -2.191936   -1.069656   -1.555250
     25          6           0       -0.948782    0.312573   -0.713905
     26          1           0       -0.208001    0.130375   -1.279231
     27          6           0        0.591140    3.040460   -0.847797
     28          1           0       -0.190167    3.626147   -0.920914
     29          1           0        0.663765    2.490014   -1.654861
     30          1           0        0.336855    2.732296    1.169300
     31          1           0        1.399142    3.586157   -0.751353
 ---------------------------------------------------------------------

 SCF Done:  E(RPBE1PBE) =  -3281.45580210     A.U. after   18 cycles

 The electronic state is 1-A.
 Alpha  occ. eigenvalues -- -483.10902 -62.54278 -56.33256 -56.32925 -56.32920
 Alpha  occ. eigenvalues --  -18.95081 -14.21809 -10.19829 -10.14504 -10.14492
 Alpha  occ. eigenvalues --  -10.14248 -10.13740 -10.13526 -10.13225 -10.10604
 Alpha  occ. eigenvalues --  -10.09849 -10.09052 -10.06963 -10.06610 -10.05865
 Alpha  occ. eigenvalues --  -10.05173 -10.04139  -8.68887  -6.50320  -6.49102
 Alpha  occ. eigenvalues --   -6.49094  -2.58885  -2.58528  -2.58522  -2.57544
 Alpha  occ. eigenvalues --   -2.57544  -0.81114  -0.79359  -0.78155  -0.73683
 Alpha  occ. eigenvalues --   -0.70323  -0.69517  -0.68402  -0.64498  -0.62222
 Alpha  occ. eigenvalues --   -0.58373  -0.56579  -0.55777  -0.52433  -0.48798
 Alpha  occ. eigenvalues --   -0.47127  -0.44141  -0.42203  -0.41226  -0.40373
 Alpha  occ. eigenvalues --   -0.38659  -0.37478  -0.36633  -0.36095  -0.33443
 Alpha  occ. eigenvalues --   -0.32414  -0.31479  -0.30689  -0.30230  -0.29381
 Alpha  occ. eigenvalues --   -0.28765  -0.27084  -0.26195  -0.24260  -0.24105
 Alpha  occ. eigenvalues --   -0.23482  -0.21825  -0.21448  -0.18802  -0.18522
 Alpha  occ. eigenvalues --   -0.18054  -0.15710  -0.15165  -0.10566  -0.09921
 Alpha  occ. eigenvalues --   -0.03542  -0.02488
 Alpha virt. eigenvalues --    0.07935   0.08339   0.10568   0.12386   0.18563
 Alpha virt. eigenvalues --    0.18824   0.20230   0.20994   0.21556   0.22695
 Alpha virt. eigenvalues --    0.23489   0.23638   0.24870   0.25988   0.26209

 Mulliken charges:
               1
     1  C    0.163585
     2  C   -0.011941
     3  H   -0.141754
     4  N   -0.205822
     5  C    0.086616
     6  H   -0.123034
     7  C    0.012194
     8  H   -0.135373
     9  C    0.061651
    10  H   -0.138014
    11  C   -0.097395
    12  C    0.105016
    13  H   -0.154408
    14  O   -0.420921
    15  Br  -0.095836
    16  C    0.103404
    17  C   -0.011798
    18  C    0.065120
    19  H   -0.097881
    20  C    0.105423
    21  H   -0.100254
    22  C   -0.058385
    23  C    0.106416
    24  H   -0.095522
    25  C    0.100443
    26  H   -0.074478
    27  C    0.171820
    28  H   -0.035671
    29  H   -0.020279
    30  H   -0.054007
    31  H   -0.008914
 Sum of Mulliken charges =  -1.00000

 Dipole moment (field-independent basis, Debye):
    X=            -11.5222    Y=              3.5779    Z=             -4.6822  Tot=             12.9416
 Quadrupole moment (field-independent basis, Debye-Ang):
   XX=           -190.7065   YY=           -121.7337   ZZ=           -129.7925
   XY=              7.6458   XZ=            -14.0794   YZ=              4.5046

  Exact polarizability:     279.697     -25.137     165.178     -25.468       2.073     145.885
 Approx polarizability:     357.545     -33.227     254.708     -61.887      12.050     268.381

 Summary of Natural Population Analysis:

                                       Natural Population
                Natural  -----------------------------------------------
    Atom  No    Charge         Core      Valence    Rydberg      Total
 -----------------------------------------------------------------------
      C    1    0.40402      1.99888     3.55732    0.03978     5.59598
      C    2   -0.26958      1.99901     4.25075    0.01981     6.26958
      H    3    0.16920      0.00000     0.82547    0.00533     0.83080
      N    4   -0.50741      1.99935     5.48888    0.01918     7.50741
      C    5   -0.19194      1.99913     4.17854    0.01427     6.19194
      H    6    0.15594      0.00000     0.84037    0.00369     0.84406
      C    7   -0.30421      1.99911     4.28812    0.01699     6.30421
      H    8    0.16004      0.00000     0.83665    0.00332     0.83996
      C    9   -0.16524      1.99907     4.15131    0.01486     6.16524
      H   10    0.15726      0.00000     0.83866    0.00408     0.84274
      C   11   -0.22054      1.99891     4.20249    0.01914     6.22054
      C   12    0.12081      1.99904     3.85319    0.02696     5.87919
      H   13    0.10911      0.00000     0.88265    0.00824     0.89089
      O   14   -0.71107      1.99979     6.70340    0.00788     8.71107
     Br   15    0.00825     27.99920     6.97425    0.01829    34.99175
      C   16   -0.02093      1.99895     3.99877    0.02321     6.02093
      C   17    0.00221      1.99898     3.97789    0.02092     5.99779
      C   18   -0.17198      1.99896     4.15797    0.01505     6.17198
      H   19    0.18103      0.00000     0.81582    0.00315     0.81897
      C   20   -0.19553      1.99891     4.18041    0.01621     6.19553
      H   21    0.18731      0.00000     0.80949    0.00320     0.81269
      C   22   -0.11590      1.99878     4.09541    0.02171     6.11590
      C   23   -0.19386      1.99890     4.17867    0.01629     6.19386
      H   24    0.19058      0.00000     0.80625    0.00317     0.80942
      C   25   -0.14466      1.99898     4.12999    0.01570     6.14466
      H   26    0.19128      0.00000     0.80531    0.00342     0.80872
      C   27   -0.58906      1.99919     4.58049    0.00939     6.58906
      H   28    0.19264      0.00000     0.80444    0.00292     0.80736
      H   29    0.18900      0.00000     0.80805    0.00296     0.81100
      H   30    0.18765      0.00000     0.80778    0.00457     0.81235
      H   31    0.19559      0.00000     0.80137    0.00304     0.80441
 =======================================================================
   * Total *   -1.00000     61.98314    91.63013    0.38673   154.00000

 ******   23 imaginary frequencies (negative Signs) ******

                      1                      2                      3
                      A                      A                      A
 Frequencies --  -1296.4225             -1238.7321             -1219.4300
 Red. masses --      1.0778                 1.0676                 1.0103
 Frc consts  --      1.0673                 0.9652                 0.8851
 IR Inten    --     67.7073                50.8104                 0.0152

                      4                      5                      6
                      A                      A                      A
 Frequencies --  -1218.2935             -1198.5125             -1191.6429
 Red. masses --      1.0428                 1.0433                 1.0545
 Frc consts  --      0.9120                 0.8830                 0.8822
 IR Inten    --      1.9902                14.0488                 6.9082

                      7                      8                      9
                      A                      A                      A
 Frequencies --  -1100.9507             -1055.9438             -1031.5330
 Red. masses --      1.0266                 1.0180                 1.0323
 Frc consts  --      0.7332                 0.6688                 0.6472
 IR Inten    --      0.5771                 0.3862                 0.3184

                     10                     11                     12
                      A                      A                      A
 Frequencies --  -1018.1790              -840.8452              -830.3162
 Red. masses --      1.0321                 1.0622                 1.0629
 Frc consts  --      0.6304                 0.4425                 0.4317
 IR Inten    --      0.1876                 9.1803                10.6847

                     13                     14                     15
                      A                      A                      A
 Frequencies --   -727.6982              -683.4127              -648.4393
 Red. masses --      1.1084                 1.1794                 1.1906
 Frc consts  --      0.3458                 0.3245                 0.2950
 IR Inten    --      0.9337                 4.3973                 2.8598

                     16                     17                     18
                      A                      A                      A
 Frequencies --   -623.9775              -597.4845              -536.0588
 Red. masses --      1.0960                 1.1770                 1.1964
 Frc consts  --      0.2514                 0.2476                 0.2026
 IR Inten    --      9.5564                 4.8016                 6.8981

                     19                     20                     21
                      A                      A                      A
 Frequencies --   -519.6620              -373.3962              -357.1671
 Red. masses --      1.1696                 1.0376                 1.4492
 Frc consts  --      0.1861                 0.0852                 0.1089
 IR Inten    --     16.1928                 8.0830                 1.0356

                     22                     23                     24
                      A                      A                      A
 Frequencies --   -107.4517               -20.3727                90.9897
 Red. masses --      3.6702                 6.4349                 9.3460
 Frc consts  --      0.0250                 0.0016                 0.0456
 IR Inten    --      6.0171                 2.0606                 2.6479

                     25                     26                     27
                      A                      A                      A
 Frequencies --    112.3621               156.9360               200.6279
 Red. masses --     10.6550                 8.4139                 8.5749
 Frc consts  --      0.0793                 0.1221                 0.2034
 IR Inten    --      0.5167                 0.9278                 0.3096

                     28                     29                     30
                      A                      A                      A
 Frequencies --    222.3914               272.7858               289.8590
 Red. masses --      7.3605                 7.5197                 6.9759
 Frc consts  --      0.2145                 0.3297                 0.3453
 IR Inten    --      0.6412                 0.4897                 3.9642

                     31                     32                     33
                      A                      A                      A
 Frequencies --    305.7833               363.0164               393.7641
 Red. masses --      9.4453                 3.9418                 5.9487
 Frc consts  --      0.5203                 0.3061                 0.5434
 IR Inten    --      1.7053                 2.5666                 8.8279

                     34                     35                     36
                      A                      A                      A
 Frequencies --    451.9532               467.1190               501.9864
 Red. masses --      8.3660                 6.1556                 9.4355
 Frc consts  --      1.0068                 0.7914                 1.4009
 IR Inten    --     10.8124                 4.9978                 1.3728

                     37                     38                     39
                      A                      A                      A
 Frequencies --    542.7496               550.2564               622.6995
 Red. masses --      9.1182                 6.0595                 4.7052
 Frc consts  --      1.5825                 1.0810                 1.0749
 IR Inten    --      0.2559                 3.5103                17.3248

                     40                     41                     42
                      A                      A                      A
 Frequencies --    626.0954               637.7204               653.7032
 Red. masses --      8.1774                 4.8658                 9.5930
 Frc consts  --      1.8886                 1.1659                 2.4153
 IR Inten    --      1.0429                 6.8741                 1.5836

                     43                     44                     45
                      A                      A                      A
 Frequencies --    663.9521               689.1836               708.1472
 Red. masses --      8.2944                 1.2380                 2.5474
 Frc consts  --      2.1543                 0.3465                 0.7526
 IR Inten    --      4.7644                19.3172                 4.5301

                     46                     47                     48
                      A                      A                      A
 Frequencies --    756.3327               790.9831               811.9921
 Red. masses --      4.3786                 4.4058                 6.2215
 Frc consts  --      1.4757                 1.6241                 2.4169
 IR Inten    --      4.5081                 1.1941                 0.5036

                     49                     50                     51
                      A                      A                      A
 Frequencies --    821.4036               852.7008               864.2815
 Red. masses --      3.9442                10.5654                 2.1500
 Frc consts  --      1.5679                 4.5262                 0.9462
 IR Inten    --      0.2307                10.7239                11.0160

                     52                     53                     54
                      A                      A                      A
 Frequencies --    895.6667               915.8433               955.4602
 Red. masses --      1.6533                 4.8551                 2.4969
 Frc consts  --      0.7814                 2.3994                 1.3430
 IR Inten    --     52.0007                 1.0178                47.8286

                     55                     56                     57
                      A                      A                      A
 Frequencies --    972.7464               981.7386              1055.2777
 Red. masses --      5.0595                 4.1641                 6.3257
 Frc consts  --      2.8207                 2.3646                 4.1504
 IR Inten    --     47.0139                36.4755                41.1471

                     58                     59                     60
                      A                      A                      A
 Frequencies --   1100.7335              1125.3328              1142.1982
 Red. masses --      6.1130                 1.2310                 1.1744
 Frc consts  --      4.3638                 0.9185                 0.9027
 IR Inten    --     18.0547                 2.7505                 4.2853

                     61                     62                     63
                      A                      A                      A
 Frequencies --   1222.7361              1239.6638              1312.5895
 Red. masses --      6.7099                 6.5550                 8.4826
 Frc consts  --      5.9106                 5.9351                 8.6106
 IR Inten    --     17.4282                35.1878                35.5801

                     64                     65                     66
                      A                      A                      A
 Frequencies --   1375.5498              1410.3745              1427.4975
 Red. masses --      9.4667                 7.7759                 8.8583
 Frc consts  --     10.5536                 9.1132                10.6353
 IR Inten    --      9.8248                38.7589                21.2375

                     67                     68                     69
                      A                      A                      A
 Frequencies --   1435.4910              1439.7256              1499.0416
 Red. masses --      9.4343                10.5311                 9.4441
 Frc consts  --     11.4541                12.8613                12.5037
 IR Inten    --     16.8611               213.4894               165.0453

                     70                     71                     72
                      A                      A                      A
 Frequencies --   1600.9557              1625.9622              1636.8887
 Red. masses --     10.1845                11.0566                11.0327
 Frc consts  --     15.3797                17.2223                17.4169
 IR Inten    --    408.4729                 2.2368               388.0110

                     73                     74                     75
                      A                      A                      A
 Frequencies --   1646.6477              1664.0143              4124.4659
 Red. masses --     10.5578                 9.9491                 1.0875
 Frc consts  --     16.8665                16.2311                10.8994
 IR Inten    --     63.3839                 5.3890                31.3228

                     76                     77                     78
                      A                      A                      A
 Frequencies --   4239.4286              4429.0593              4432.7329
 Red. masses --      1.0320                 1.1065                 1.1064
 Frc consts  --     10.9285                12.7890                12.8085
 IR Inten    --     11.7883                10.1841                 6.4492

                     79                     80                     81
                      A                      A                      A
 Frequencies --   4728.7133              4744.9325              4752.1310
 Red. masses --      1.0860                 1.0860                 1.0878
 Frc consts  --     14.3077                14.4054                14.4729
 IR Inten    --     25.0028                 8.0611                10.9762

                     82                     83                     84
                      A                      A                      A
 Frequencies --   4764.2339              4765.8951              4768.0966
 Red. masses --      1.0898                 1.0880                 1.0886
 Frc consts  --     14.5735                14.5605                14.5817
 IR Inten    --     14.7185                 0.4701                 0.7014

                     85                     86                     87
                      A                      A                      A
 Frequencies --   4770.6302              4778.7770              4782.6567
 Red. masses --      1.0923                 1.0912                 1.0909
 Frc consts  --     14.6467                14.6822                14.7021
 IR Inten    --     20.0584                 0.1058                 0.7252

 - Thermochemistry -
 -------------------
 Temperature   298.150 Kelvin.  Pressure   1.00000 Atm.
 Atom     1 has atomic number  6 and mass  12.00000

 Molecular mass:   302.01805 amu.
 Principal axes and moments of inertia in atomic units:
                           1         2         3
     Eigenvalues --  2646.85520********************
           X            0.99978  -0.01915  -0.00875
           Y            0.01899   0.99966  -0.01806
           Z            0.00910   0.01789   0.99980
 This molecule is an asymmetric top.
 Rotational symmetry number  1.
 Warning -- assumption of classical behavior for rotation
           may cause significant error
 Rotational temperatures (Kelvin)      0.03272     0.00557     0.00519
 Rotational constants (GHZ):           0.68184     0.11608     0.10820
   23 imaginary frequencies ignored.
 Zero-point vibrational energy     623168.7 (Joules/Mol)
                                  148.94088 (Kcal/Mol)
 Warning -- explicit consideration of  15 degrees of freedom as
           vibrations may cause significant error
 Vibrational temperatures:    130.91   161.66   225.80   288.66   319.97
          (Kelvin)            392.48   417.04   439.95   522.30   566.54
                              650.26   672.08   722.25   780.90   791.70
                              895.93   900.81   917.54   940.53   955.28
                              991.58  1018.87  1088.19  1138.05  1168.28
                             1181.82  1226.85  1243.51  1288.66  1317.69
                             1374.69  1399.57  1412.50  1518.31  1583.71
                             1619.10  1643.37  1759.24  1783.60  1888.52
                             1979.11  2029.21  2053.85  2065.35  2071.44
                             2156.79  2303.42  2339.40  2355.12  2369.16
                             2394.15  5934.19  6099.59  6372.43  6377.71
                             6803.56  6826.90  6837.26  6854.67  6857.06
                             6860.23  6863.87  6875.59  6881.18

 Zero-point correction=                           0.237352 (Hartree/Particle)
 Thermal correction to Energy=                    0.248238
 Thermal correction to Enthalpy=                  0.249182
 Thermal correction to Gibbs Free Energy=         0.198807
 Sum of electronic and zero-point Energies=          -3281.218450
 Sum of electronic and thermal Energies=             -3281.207564
 Sum of electronic and thermal Enthalpies=           -3281.206620
 Sum of electronic and thermal Free Energies=        -3281.256995

                     E (Thermal)             CV                S
                      KCal/Mol        Cal/Mol-Kelvin    Cal/Mol-Kelvin
 Total                  155.772             44.526            106.024
 Electronic               0.000              0.000              0.000
 Translational            0.889              2.981             43.013
 Rotational               0.889              2.981             34.883
 Vibrational            153.994             38.565             28.128
 Vibration     1          0.602              1.956              3.639
 Vibration     2          0.607              1.939              3.228
 Vibration     3          0.621              1.895              2.586
 Vibration     4          0.638              1.839              2.127
 Vibration     5          0.648              1.807              1.940
 Vibration     6          0.676              1.723              1.578
 Vibration     7          0.686              1.693              1.475
 Vibration     8          0.696              1.663              1.385
 Vibration     9          0.737              1.548              1.109
 Vibration    10          0.761              1.484              0.986
 Vibration    11          0.811              1.357              0.790
 Vibration    12          0.824              1.323              0.746
 Vibration    13          0.857              1.246              0.653
 Vibration    14          0.898              1.156              0.559
 Vibration    15          0.906              1.139              0.544

 Normal termination of Gaussian 16 at Mon Mar  6 11:10:07 2023.
