 Gaussian 16, Revision C.01,
 Gaussian 16:  ES64L-G16RevC.01  3-Jul-2019

 ----------------------------------------------------------------------
 #p pop=(regular,nbo,savenbos) freq=noraman def2svp empiricaldispersion
 =gd3bj output=wfx pbe1pbe
 ----------------------------------------------------------------------

 ----------------------------------------
 SUHNAM_Complex_1_Ligand_1_ON_Cu_oriented
 ----------------------------------------
 Symbolic Z-matrix:
 Charge = -1 Multiplicity = 1

                         Standard orientation:
 ---------------------------------------------------------------------
 Center     Atomic      Atomic             Coordinates (Angstroms)
 Number     Number       Type             X           Y           Z
 ---------------------------------------------------------------------
      1          8           0       -2.083595   -1.617063   -1.106278
      2          7           0       -0.772892    0.735818   -0.216083
      3          6           0       -3.132148   -1.071245   -0.546517
      4          6           0       -4.273531    0.611538    0.796381
      5          6           0       -3.103513    0.141156    0.193225
      6          6           0       -1.907025    0.926365    0.353849
      7          1           0       -1.962487    1.659537    0.939988
      8          6           0        0.313330    1.706992    0.111877
      9          1           0        0.119030    2.078171    1.009498
     10          6           0        0.281855    2.857373   -0.874312
     11          1           0       -0.594357    3.273945   -0.857439
     12          1           0        0.464132    2.523652   -1.766288
     13          1           0        0.955228    3.511606   -0.630150
     14          6           0        1.629514    0.949986    0.204160
     15          6           0        1.837033    0.077343    1.259120
     16          1           0        1.177125   -0.009979    1.923088
     17          6           0        3.000647   -0.667857    1.353646
     18          1           0        3.127191   -1.248618    2.081083
     19          6           0        3.972786   -0.560999    0.385621
     20          6           0        3.792068    0.310309   -0.667746
     21          1           0        4.455948    0.399033   -1.326009
     22          6           0        2.630022    1.053392   -0.751778
     23          1           0        2.514266    1.643080   -1.473515
     24          8           0        5.073301   -1.365308    0.544727
     25          6           0        5.992072   -1.417440   -0.533492
     26          1           0        6.723309   -2.013091   -0.305841
     27          1           0        6.339601   -0.528306   -0.703957
     28          1           0        5.541109   -1.746728   -1.326678
     29          6           0       -4.388557   -1.731021   -0.654871
     30          1           0       -4.445480   -2.536753   -1.135620
     31          6           0       -5.520775   -1.213236   -0.072309
     32          1           0       -6.340454   -1.661762   -0.175017
     33          6           0       -5.473771   -0.031017    0.671097
     34          1           0       -4.233356    1.400083    1.307759
     35          1           0       -6.248263    0.314536    1.076378
 ---------------------------------------------------------------------

 SCF Done:  E(RPBE1PBE) =  -822.735499360     A.U. after   19 cycles

 The electronic state is 1-A.
 Alpha  occ. eigenvalues --  -19.14719 -18.94434 -14.20887 -10.18939 -10.17590
 Alpha  occ. eigenvalues --  -10.12401 -10.12178 -10.11983 -10.11699 -10.11393
 Alpha  occ. eigenvalues --  -10.11335 -10.09529 -10.09256 -10.07701 -10.06130
 Alpha  occ. eigenvalues --  -10.05935 -10.05052 -10.04418 -10.03501  -0.99224
 Alpha  occ. eigenvalues --   -0.79483  -0.78078  -0.76914  -0.70557  -0.69763
 Alpha  occ. eigenvalues --   -0.68100  -0.67310  -0.63448  -0.61786  -0.57895
 Alpha  occ. eigenvalues --   -0.55830  -0.54324  -0.51114  -0.48679  -0.47236
 Alpha  occ. eigenvalues --   -0.46812  -0.42767  -0.42529  -0.42185  -0.40373
 Alpha  occ. eigenvalues --   -0.39112  -0.37648  -0.37236  -0.35979  -0.35195
 Alpha  occ. eigenvalues --   -0.33283  -0.32576  -0.31190  -0.30650  -0.29819
 Alpha  occ. eigenvalues --   -0.28727  -0.28656  -0.27249  -0.25507  -0.25058
 Alpha  occ. eigenvalues --   -0.23877  -0.23511  -0.23383  -0.20803  -0.18229
 Alpha  occ. eigenvalues --   -0.17372  -0.16658  -0.14586  -0.13310  -0.09905
 Alpha  occ. eigenvalues --   -0.09445  -0.02936  -0.01900
 Alpha virt. eigenvalues --    0.09593   0.11539   0.13150   0.16540   0.19155
 Alpha virt. eigenvalues --    0.19469   0.20691   0.21321   0.21802   0.22212
 Alpha virt. eigenvalues --    0.22481   0.23442   0.23935   0.25095   0.25605

 Mulliken charges:
               1
     1  O   -0.429261
     2  N   -0.210019
     3  C    0.162639
     4  C    0.072316
     5  C   -0.091802
     6  C    0.112051
     7  H   -0.150417
     8  C    0.064743
     9  H   -0.069288
    10  C    0.218546
    11  H   -0.037456
    12  H   -0.012845
    13  H   -0.045520
    14  C    0.025606
    15  C    0.105774
    16  H   -0.104461
    17  C    0.040989
    18  H   -0.116074
    19  C    0.253870
    20  C   -0.014714
    21  H   -0.138840
    22  C    0.077410
    23  H   -0.125292
    24  O   -0.399443
    25  C    0.338842
    26  H   -0.018025
    27  H   -0.021187
    28  H   -0.016133
    29  C   -0.002652
    30  H   -0.154596
    31  C    0.094356
    32  H   -0.133774
    33  C    0.020916
    34  H   -0.149504
    35  H   -0.146754
 Sum of Mulliken charges =  -1.00000

 Dipole moment (field-independent basis, Debye):
    X=             10.9883    Y=              4.3831    Z=              1.6076  Tot=             11.9390
 Quadrupole moment (field-independent basis, Debye-Ang):
   XX=           -154.3074   YY=           -120.6315   ZZ=           -116.2986
   XY=            -11.4730   XZ=            -12.7755   YZ=             -2.7432

  Exact polarizability:     287.547       5.575     158.309     -20.287       6.990     127.154
 Approx polarizability:     374.351      -7.834     246.904     -46.969      15.141     215.605

 Summary of Natural Population Analysis:

                                       Natural Population
                Natural  -----------------------------------------------
    Atom  No    Charge         Core      Valence    Rydberg      Total
 -----------------------------------------------------------------------
      O    1   -0.71693      1.99980     6.70942    0.00771     8.71693
      N    2   -0.50693      1.99934     5.48718    0.02042     7.50693
      C    3    0.40238      1.99887     3.55916    0.03959     5.59762
      C    4   -0.16270      1.99906     4.14854    0.01511     6.16270
      C    5   -0.21887      1.99891     4.20095    0.01901     6.21887
      C    6    0.13344      1.99905     3.83964    0.02787     5.86656
      H    7    0.09985      0.00000     0.89099    0.00917     0.90015
      C    8   -0.02009      1.99894     3.99991    0.02123     6.02009
      H    9    0.16288      0.00000     0.82799    0.00913     0.83712
      C   10   -0.56067      1.99917     4.55108    0.01041     6.56067
      H   11    0.19623      0.00000     0.80118    0.00258     0.80377
      H   12    0.18763      0.00000     0.80752    0.00485     0.81237
      H   13    0.17789      0.00000     0.81876    0.00335     0.82211
      C   14   -0.02670      1.99900     4.00858    0.01912     6.02670
      C   15   -0.13404      1.99899     4.11961    0.01544     6.13404
      H   16    0.17879      0.00000     0.81751    0.00369     0.82121
      C   17   -0.22407      1.99899     4.20941    0.01567     6.22407
      H   18    0.18163      0.00000     0.81473    0.00364     0.81837
      C   19    0.32273      1.99872     3.65598    0.02257     5.67727
      C   20   -0.28131      1.99899     4.26820    0.01412     6.28131
      H   21    0.17406      0.00000     0.82285    0.00308     0.82594
      C   22   -0.16087      1.99900     4.14699    0.01487     6.16087
      H   23    0.17311      0.00000     0.82359    0.00330     0.82689
      O   24   -0.56162      1.99966     6.55204    0.00991     8.56162
      C   25   -0.15239      1.99898     4.14214    0.01127     6.15239
      H   26    0.16687      0.00000     0.83123    0.00190     0.83313
      H   27    0.14861      0.00000     0.84759    0.00381     0.85139
      H   28    0.15630      0.00000     0.84005    0.00365     0.84370
      C   29   -0.26846      1.99901     4.24951    0.01995     6.26846
      H   30    0.16421      0.00000     0.83038    0.00542     0.83579
      C   31   -0.18848      1.99913     4.17497    0.01438     6.18848
      H   32    0.15075      0.00000     0.84550    0.00374     0.84925
      C   33   -0.30278      1.99911     4.28640    0.01727     6.30278
      H   34    0.15339      0.00000     0.84232    0.00428     0.84661
      H   35    0.15616      0.00000     0.84050    0.00334     0.84384
 =======================================================================
   * Total *   -1.00000     37.98271    97.61241    0.40488   136.00000

 ******   26 imaginary frequencies (negative Signs) ******

                      1                      2                      3
                      A                      A                      A
 Frequencies --  -1388.9869             -1345.7815             -1319.4669
 Red. masses --      1.0808                 1.0674                 1.0161
 Frc consts  --      1.2286                 1.1390                 1.0423
 IR Inten    --     68.9967                60.8101                 1.8375

                      4                      5                      6
                      A                      A                      A
 Frequencies --  -1315.7392             -1310.9289             -1302.1170
 Red. masses --      1.0437                 1.0440                 1.0087
 Frc consts  --      1.0645                 1.0571                 1.0076
 IR Inten    --     11.0261                 5.0833                 0.4274

                      7                      8                      9
                      A                      A                      A
 Frequencies --  -1296.6685             -1195.2585             -1163.6690
 Red. masses --      1.0708                 1.0298                 1.0299
 Frc consts  --      1.0607                 0.8668                 0.8217
 IR Inten    --      0.8716                 0.4450                 0.5385

                     10                     11                     12
                      A                      A                      A
 Frequencies --  -1143.3727             -1126.9212              -933.3998
 Red. masses --      1.0329                 1.0383                 1.0703
 Frc consts  --      0.7956                 0.7769                 0.5494
 IR Inten    --      0.1326                 0.2278                14.6500

                     13                     14                     15
                      A                      A                      A
 Frequencies --   -902.4932              -868.0929              -809.4329
 Red. masses --      1.0502                 1.0861                 1.1358
 Frc consts  --      0.5040                 0.4822                 0.4384
 IR Inten    --     13.4554                 0.7381                 5.4116

                     16                     17                     18
                      A                      A                      A
 Frequencies --   -800.5569              -773.7884              -767.4145
 Red. masses --      1.1415                 1.0899                 1.1746
 Frc consts  --      0.4310                 0.3845                 0.4076
 IR Inten    --      1.5613                10.7764                 5.5015

                     19                     20                     21
                      A                      A                      A
 Frequencies --   -721.2532              -697.3554              -684.2776
 Red. masses --      1.0927                 1.1370                 1.1145
 Frc consts  --      0.3349                 0.3258                 0.3075
 IR Inten    --      9.1528                 1.5750                 8.4466

                     22                     23                     24
                      A                      A                      A
 Frequencies --   -657.0184              -579.0256              -556.4898
 Red. masses --      1.1360                 1.2073                 1.0392
 Frc consts  --      0.2889                 0.2385                 0.1896
 IR Inten    --     15.2816                 0.7189                11.6135

                     25                     26                     27
                      A                      A                      A
 Frequencies --   -235.1680              -106.5072               109.7516
 Red. masses --      2.7057                 4.3894                 9.6866
 Frc consts  --      0.0882                 0.0293                 0.0687
 IR Inten    --      0.4412                 0.2333                 1.3435

                     28                     29                     30
                      A                      A                      A
 Frequencies --    148.0931               175.9413               207.9758
 Red. masses --      7.1657                 8.4319                 7.5124
 Frc consts  --      0.0926                 0.1538                 0.1914
 IR Inten    --      4.5740                 0.2460                 0.3391

                     31                     32                     33
                      A                      A                      A
 Frequencies --    212.2489               265.9199               309.0880
 Red. masses --      5.3471                 8.4359                 8.6641
 Frc consts  --      0.1419                 0.3515                 0.4877
 IR Inten    --      1.8106                 1.7244                 1.5927

                     34                     35                     36
                      A                      A                      A
 Frequencies --    325.1770               360.8720               406.7895
 Red. masses --      4.4597                 4.6469                 6.6489
 Frc consts  --      0.2778                 0.3565                 0.6482
 IR Inten    --      0.7310                 3.2294                 2.6459

                     37                     38                     39
                      A                      A                      A
 Frequencies --    463.7160               497.5616               516.8863
 Red. masses --      7.6250                 6.0923                 4.5997
 Frc consts  --      0.9660                 0.8886                 0.7241
 IR Inten    --      1.6960                 4.3273                 4.8096

                     40                     41                     42
                      A                      A                      A
 Frequencies --    528.9531               564.0376               590.2905
 Red. masses --      9.9507                 1.1910                 4.3887
 Frc consts  --      1.6404                 0.2233                 0.9010
 IR Inten    --      0.0286                23.2695                19.5928

                     43                     44                     45
                      A                      A                      A
 Frequencies --    608.3845               613.8056               635.5146
 Red. masses --      5.1626                10.8495                 5.5352
 Frc consts  --      1.1258                 2.4084                 1.3172
 IR Inten    --      7.5535                 1.2368                 6.0711

                     46                     47                     48
                      A                      A                      A
 Frequencies --    647.5654               649.5436               657.6392
 Red. masses --      4.8376                 5.9817                 6.4216
 Frc consts  --      1.1952                 1.4869                 1.6363
 IR Inten    --      2.4268                 5.4825                16.0632

                     49                     50                     51
                      A                      A                      A
 Frequencies --    685.0195               735.3722               746.1752
 Red. masses --      3.4731                 4.1657                 5.0030
 Frc consts  --      0.9602                 1.3272                 1.6412
 IR Inten    --     21.8560                 0.3654                 9.5355

                     52                     53                     54
                      A                      A                      A
 Frequencies --    763.2419               784.8353               796.9354
 Red. masses --      3.4747                 1.6934                 4.4140
 Frc consts  --      1.1926                 0.6146                 1.6517
 IR Inten    --      5.4684                44.4993                47.8682

                     55                     56                     57
                      A                      A                      A
 Frequencies --    835.9275               851.6193               869.6672
 Red. masses --      3.4537                11.0687                 3.0303
 Frc consts  --      1.4219                 4.7298                 1.3503
 IR Inten    --      9.7630                 9.2237                 7.4556

                     58                     59                     60
                      A                      A                      A
 Frequencies --    882.5740               913.8659               938.7885
 Red. masses --      2.9041                 4.2125                 4.4693
 Frc consts  --      1.3328                 2.0728                 2.3207
 IR Inten    --      3.6831                 6.2894                37.4282

                     61                     62                     63
                      A                      A                      A
 Frequencies --    965.1716              1021.4908              1076.0498
 Red. masses --      3.0651                 2.5089                 1.7638
 Frc consts  --      1.6823                 1.5424                 1.2033
 IR Inten    --     46.6500                19.5802                 4.8056

                     64                     65                     66
                      A                      A                      A
 Frequencies --   1095.5063              1098.5322              1104.4656
 Red. masses --      1.0982                 1.4042                 1.5095
 Frc consts  --      0.7766                 0.9984                 1.0849
 IR Inten    --     15.4660                 3.1890                23.3596

                     67                     68                     69
                      A                      A                      A
 Frequencies --   1127.9779              1142.1624              1212.3248
 Red. masses --      3.7716                 1.5619                 5.7194
 Frc consts  --      2.8274                 1.2005                 4.9527
 IR Inten    --     20.3208                22.1075                30.1512

                     70                     71                     72
                      A                      A                      A
 Frequencies --   1238.1965              1311.6249              1329.7820
 Red. masses --      7.6055                 8.6022                 7.6403
 Frc consts  --      6.8700                 8.7192                 7.9602
 IR Inten    --     26.0528                78.5207               130.6264

                     73                     74                     75
                      A                      A                      A
 Frequencies --   1418.0637              1432.2136              1452.9664
 Red. masses --      9.2155                10.6972                 9.7490
 Frc consts  --     10.9185                12.9281                12.1262
 IR Inten    --     12.1034                86.6206                68.5772

                     76                     77                     78
                      A                      A                      A
 Frequencies --   1477.1699              1499.8275              1512.1290
 Red. masses --      8.3158                10.0877                 9.2440
 Frc consts  --     10.6909                13.3698                12.4534
 IR Inten    --     10.6051               286.5534               120.3679

                     79                     80                     81
                      A                      A                      A
 Frequencies --   1624.7624              1657.7374              1681.5784
 Red. masses --     10.2906                10.8955                11.2698
 Frc consts  --     16.0055                17.6412                18.7758
 IR Inten    --    198.5057               343.8807               108.7339

                     82                     83                     84
                      A                      A                      A
 Frequencies --   1697.9993              1723.4987              4205.6919
 Red. masses --     10.8811                10.1513                 1.0861
 Frc consts  --     18.4840                17.7661                11.3191
 IR Inten    --    333.8132                 4.2878                49.8132

                     85                     86                     87
                      A                      A                      A
 Frequencies --   4349.2983              4349.6247              4543.7452
 Red. masses --      1.0305                 1.0322                 1.1065
 Frc consts  --     11.4848                11.5062                13.4595
 IR Inten    --     45.8910                22.9252                12.3302

                     88                     89                     90
                      A                      A                      A
 Frequencies --   4543.8288              4552.2916              4555.2238
 Red. masses --      1.1077                 1.1083                 1.1065
 Frc consts  --     13.4742                13.5327                13.5277
 IR Inten    --     14.1754                 4.4367                 3.9488

                     91                     92                     93
                      A                      A                      A
 Frequencies --   4847.4018              4871.4022              4882.0053
 Red. masses --      1.0863                 1.0864                 1.0874
 Frc consts  --     15.0389                15.1898                15.2704
 IR Inten    --     50.0137                 5.9516                14.4048

                     94                     95                     96
                      A                      A                      A
 Frequencies --   4894.1270              4897.3899              4902.9314
 Red. masses --      1.0902                 1.0882                 1.0872
 Frc consts  --     15.3854                15.3773                15.3986
 IR Inten    --     18.2328                 0.5648                 3.0169

                     97                     98                     99
                      A                      A                      A
 Frequencies --   4903.1067              4911.6971              4914.4905
 Red. masses --      1.0913                 1.0906                 1.0907
 Frc consts  --     15.4574                15.5022                15.5214
 IR Inten    --     14.7191                 0.3070                 1.2349

 - Thermochemistry -
 -------------------
 Temperature   298.150 Kelvin.  Pressure   1.00000 Atm.
 Atom     1 has atomic number  8 and mass  15.99491

 Molecular mass:   254.11810 amu.
 Principal axes and moments of inertia in atomic units:
                           1         2         3
     Eigenvalues --  1980.33641********************
           X            0.99997  -0.00385  -0.00739
           Y            0.00378   0.99994  -0.00984
           Z            0.00743   0.00981   0.99992
 This molecule is an asymmetric top.
 Rotational symmetry number  1.
 Warning -- assumption of classical behavior for rotation
           may cause significant error
 Rotational temperatures (Kelvin)      0.04374     0.00709     0.00657
 Rotational constants (GHZ):           0.91133     0.14778     0.13691
   26 imaginary frequencies ignored.
 Zero-point vibrational energy     749611.5 (Joules/Mol)
                                  179.16146 (Kcal/Mol)
 Warning -- explicit consideration of  18 degrees of freedom as
           vibrations may cause significant error
 Vibrational temperatures:    157.91   213.07   253.14   299.23   305.38
          (Kelvin)            382.60   444.71   467.86   519.21   585.28
                              667.18   715.88   743.68   761.05   811.52
                              849.30   875.33   883.13   914.36   931.70
                              934.55   946.20   985.59  1058.04  1073.58
                             1098.13  1129.20  1146.61  1202.71  1225.29
                             1251.26  1269.83  1314.85  1350.71  1388.67
                             1469.70  1548.20  1576.19  1580.54  1589.08
                             1622.91  1643.32  1744.26  1781.49  1887.14
                             1913.26  2040.28  2060.64  2090.49  2125.32
                             2157.92  2175.62  2337.67  2385.11  2419.42
                             2443.04  2479.73  6051.05  6257.67  6258.14
                             6537.44  6537.56  6549.73  6553.95  6974.33
                             7008.86  7024.12  7041.56  7046.25  7054.22
                             7054.48  7066.84  7070.86

 Zero-point correction=                           0.285512 (Hartree/Particle)
 Thermal correction to Energy=                    0.296636
 Thermal correction to Enthalpy=                  0.297580
 Thermal correction to Gibbs Free Energy=         0.247899
 Sum of electronic and zero-point Energies=           -822.449987
 Sum of electronic and thermal Energies=              -822.438863
 Sum of electronic and thermal Enthalpies=            -822.437919
 Sum of electronic and thermal Free Energies=         -822.487600

                     E (Thermal)             CV                S
                      KCal/Mol        Cal/Mol-Kelvin    Cal/Mol-Kelvin
 Total                  186.142             47.602            104.563
 Electronic               0.000              0.000              0.000
 Translational            0.889              2.981             42.498
 Rotational               0.889              2.981             34.121
 Vibrational            184.365             41.641             27.944
 Vibration     1          0.606              1.941              3.273
 Vibration     2          0.617              1.905              2.697
 Vibration     3          0.628              1.872              2.371
 Vibration     4          0.641              1.828              2.061
 Vibration     5          0.643              1.822              2.024
 Vibration     6          0.672              1.736              1.623
 Vibration     7          0.698              1.656              1.367
 Vibration     8          0.709              1.625              1.284
 Vibration     9          0.735              1.553              1.118
 Vibration    10          0.772              1.455              0.938
 Vibration    11          0.821              1.331              0.755
 Vibration    12          0.853              1.255              0.664
 Vibration    13          0.872              1.213              0.617
 Vibration    14          0.884              1.186              0.590
 Vibration    15          0.920              1.109              0.516
 Vibration    16          0.948              1.052              0.467
 Vibration    17          0.967              1.014              0.435
 Vibration    18          0.973              1.003              0.427

 Normal termination of Gaussian 16 at Mon Mar  6 11:14:00 2023.
