 Gaussian 16, Revision C.01,
 Gaussian 16:  ES64L-G16RevC.01  3-Jul-2019

 ----------------------------------------------------------------------
 #p pop=(regular,nbo,savenbos) freq=noraman def2svp empiricaldispersion
 =gd3bj output=wfx pbe1pbe
 ----------------------------------------------------------------------

 ----------------------------------------
 TABZOM_Complex_1_Ligand_0_ON_Cu_oriented
 ----------------------------------------
 Symbolic Z-matrix:
 Charge = -1 Multiplicity = 1

                         Standard orientation:
 ---------------------------------------------------------------------
 Center     Atomic      Atomic             Coordinates (Angstroms)
 Number     Number       Type             X           Y           Z
 ---------------------------------------------------------------------
      1          7           0       -1.508942    0.541015    0.105350
      2          8           0        0.471187   -0.171883    2.038225
      3          6           0        1.254090   -0.235232    0.940202
      4          6           0        2.449797   -0.956098    1.006249
      5          1           0        2.680786   -1.382115    1.801491
      6          6           0        3.300089   -1.053118   -0.089585
      7          1           0        4.092818   -1.534790   -0.022023
      8          6           0        2.969693   -0.436644   -1.272035
      9          1           0        3.534257   -0.504608   -2.011498
     10          6           0        1.799719    0.292824   -1.358534
     11          1           0        1.580372    0.710752   -2.159873
     12          6           0        0.938632    0.414997   -0.269512
     13          6           0       -0.287976    1.283422   -0.391312
     14          1           0       -0.422046    1.482831   -1.341305
     15          6           0       -0.182376    2.604573    0.354626
     16          1           0       -0.993520    3.104757    0.234782
     17          1           0       -0.045807    2.434821    1.289123
     18          1           0        0.558607    3.108819    0.008882
     19          6           0       -1.813665   -0.651096   -0.726687
     20          1           0       -1.968122   -0.371553   -1.642007
     21          1           0       -1.048054   -1.247939   -0.722096
     22          1           0       -2.161100    1.044786    0.003598
     23          8           0       -4.169310   -0.560269   -0.099218
     24          6           0       -3.026897   -1.393553   -0.221857
     25          1           0       -2.823737   -1.780495    0.645237
     26          1           0       -3.229149   -2.121096   -0.830715
     27          1           0       -4.014376   -0.094503    0.667568
 ---------------------------------------------------------------------

 SCF Done:  E(RPBE1PBE) =  -593.336379745     A.U. after   16 cycles

 The electronic state is 1-A.
 Alpha  occ. eigenvalues --  -19.08713 -18.92112 -14.20236 -10.12774 -10.09814
 Alpha  occ. eigenvalues --  -10.08735 -10.07422 -10.04733 -10.04383 -10.04353
 Alpha  occ. eigenvalues --  -10.04187 -10.03018 -10.01930  -0.93423  -0.79430
 Alpha  occ. eigenvalues --   -0.74484  -0.68533  -0.66424  -0.62873  -0.59736
 Alpha  occ. eigenvalues --   -0.56329  -0.52569  -0.50684  -0.45830  -0.42886
 Alpha  occ. eigenvalues --   -0.42438  -0.37874  -0.36903  -0.36058  -0.33221
 Alpha  occ. eigenvalues --   -0.32437  -0.30569  -0.29950  -0.28691  -0.28631
 Alpha  occ. eigenvalues --   -0.25695  -0.25216  -0.24144  -0.22852  -0.22098
 Alpha  occ. eigenvalues --   -0.20597  -0.18756  -0.17215  -0.15611  -0.12748
 Alpha  occ. eigenvalues --   -0.09356  -0.08762  -0.01250  -0.00141
 Alpha virt. eigenvalues --    0.17114   0.19199   0.20571   0.21451   0.22160
 Alpha virt. eigenvalues --    0.24281   0.25503   0.26566   0.27817   0.28417
 Alpha virt. eigenvalues --    0.29993   0.31162   0.31672   0.32268   0.32382

 Mulliken charges:
               1
     1  N   -0.230619
     2  O   -0.518193
     3  C    0.192139
     4  C    0.001548
     5  H   -0.173299
     6  C    0.100983
     7  H   -0.150788
     8  C    0.028451
     9  H   -0.159305
    10  C    0.071527
    11  H   -0.170152
    12  C   -0.216765
    13  C    0.127173
    14  H   -0.095851
    15  C    0.238705
    16  H   -0.070581
    17  H   -0.018149
    18  H   -0.055321
    19  C    0.200386
    20  H   -0.074372
    21  H   -0.015910
    22  H   -0.007401
    23  O   -0.357525
    24  C    0.293594
    25  H   -0.024620
    26  H   -0.053437
    27  H    0.137784
 Sum of Mulliken charges =  -1.00000

 Dipole moment (field-independent basis, Debye):
    X=             -3.2458    Y=              0.9923    Z=             -4.0969  Tot=              5.3202
 Quadrupole moment (field-independent basis, Debye-Ang):
   XX=           -105.1698   YY=            -80.5826   ZZ=            -92.8527
   XY=             -0.5761   XZ=             -3.5501   YZ=              0.1204

  Exact polarizability:     131.755     -15.106      97.949     -11.960      -3.772     108.793
 Approx polarizability:     181.362     -26.683     135.520     -33.534      -8.974     190.983

 Summary of Natural Population Analysis:

                                       Natural Population
                Natural  -----------------------------------------------
    Atom  No    Charge         Core      Valence    Rydberg      Total
 -----------------------------------------------------------------------
      N    1   -0.63199      1.99922     5.60835    0.02442     7.63199
      O    2   -0.79919      1.99982     6.79278    0.00659     8.79919
      C    3    0.35712      1.99871     3.60402    0.04015     5.64288
      C    4   -0.27417      1.99898     4.25482    0.02037     6.27417
      H    5    0.15975      0.00000     0.83425    0.00600     0.84025
      C    6   -0.19493      1.99913     4.18124    0.01456     6.19493
      H    7    0.14614      0.00000     0.85018    0.00369     0.85386
      C    8   -0.29900      1.99911     4.28239    0.01750     6.29900
      H    9    0.15037      0.00000     0.84611    0.00353     0.84963
      C   10   -0.19083      1.99902     4.17614    0.01567     6.19083
      H   11    0.14944      0.00000     0.84656    0.00401     0.85056
      C   12   -0.16717      1.99888     4.14741    0.02089     6.16717
      C   13    0.01585      1.99897     3.96472    0.02046     5.98415
      H   14    0.14603      0.00000     0.84859    0.00539     0.85397
      C   15   -0.54324      1.99913     4.53429    0.00981     6.54324
      H   16    0.16185      0.00000     0.83478    0.00337     0.83815
      H   17    0.20342      0.00000     0.78921    0.00737     0.79658
      H   18    0.17997      0.00000     0.81716    0.00287     0.82003
      C   19   -0.17582      1.99902     4.16218    0.01462     6.17582
      H   20    0.13811      0.00000     0.85510    0.00678     0.86189
      H   21    0.19333      0.00000     0.80262    0.00404     0.80667
      H   22    0.27407      0.00000     0.71519    0.01074     0.72593
      O   23   -0.75959      1.99978     6.74571    0.01410     8.75959
      C   24    0.01927      1.99895     3.96502    0.01676     5.98073
      H   25    0.14916      0.00000     0.84492    0.00593     0.85084
      H   26    0.14717      0.00000     0.84907    0.00375     0.85283
      H   27    0.44487      0.00000     0.54763    0.00749     0.55513
 =======================================================================
   * Total *   -1.00000     25.98872    71.70043    0.31085    98.00000

 ******   21 imaginary frequencies (negative Signs) ******

                      1                      2                      3
                      A                      A                      A
 Frequencies --  -2138.2126             -1633.7296             -1470.0260
 Red. masses --      1.0849                 1.0913                 1.0872
 Frc consts  --      2.9224                 1.7161                 1.3842
 IR Inten    --     90.4068                28.7159                70.3806

                      4                      5                      6
                      A                      A                      A
 Frequencies --  -1390.0278             -1385.4625             -1316.4118
 Red. masses --      1.0626                 1.0121                 1.0371
 Frc consts  --      1.2097                 1.1446                 1.0589
 IR Inten    --      0.0762                 0.0628                 0.5613

                      7                      8                      9
                      A                      A                      A
 Frequencies --  -1232.7903             -1093.7238             -1046.2944
 Red. masses --      1.0460                 1.0377                 1.0430
 Frc consts  --      0.9366                 0.7314                 0.6727
 IR Inten    --      0.6424                 4.1102                 0.8044

                     10                     11                     12
                      A                      A                      A
 Frequencies --  -1036.2264              -996.4448              -986.2938
 Red. masses --      1.0684                 1.0482                 1.0744
 Frc consts  --      0.6759                 0.6132                 0.6158
 IR Inten    --      8.0505                 8.5004                 1.6036

                     13                     14                     15
                      A                      A                      A
 Frequencies --   -929.9148              -928.6083              -834.0966
 Red. masses --      1.0571                 1.1102                 1.0748
 Frc consts  --      0.5386                 0.5641                 0.4406
 IR Inten    --    139.9287                25.4629                 8.5261

                     16                     17                     18
                      A                      A                      A
 Frequencies --   -744.9462              -541.9731              -442.5686
 Red. masses --      1.1115                 1.5673                 1.8245
 Frc consts  --      0.3634                 0.2712                 0.2105
 IR Inten    --      5.6540                 2.6271                 8.5415

                     19                     20                     21
                      A                      A                      A
 Frequencies --   -347.8983              -280.7194              -199.7512
 Red. masses --      1.7813                 2.4730                 2.9628
 Frc consts  --      0.1270                 0.1148                 0.0697
 IR Inten    --      3.6649                 3.6397                 4.1189

                     22                     23                     24
                      A                      A                      A
 Frequencies --    164.6638               193.6195               245.9895
 Red. masses --      7.7300                 4.9780                 3.9902
 Frc consts  --      0.1235                 0.1100                 0.1423
 IR Inten    --      2.2148                 4.2629                 7.3668

                     25                     26                     27
                      A                      A                      A
 Frequencies --    306.9571               350.5772               416.6039
 Red. masses --      1.2720                 6.1619                 4.6770
 Frc consts  --      0.0706                 0.4462                 0.4783
 IR Inten    --     22.9078                 3.1288                 3.3382

                     28                     29                     30
                      A                      A                      A
 Frequencies --    426.3682               466.0163               476.3692
 Red. masses --      1.3393                 4.8883                 1.9711
 Frc consts  --      0.1434                 0.6255                 0.2635
 IR Inten    --     65.2482                 0.6045                10.7276

                     31                     32                     33
                      A                      A                      A
 Frequencies --    525.0349               601.7763               624.7377
 Red. masses --      2.1837                 4.4014                 5.7366
 Frc consts  --      0.3547                 0.9391                 1.3192
 IR Inten    --      9.0573                25.4437                 5.5495

                     34                     35                     36
                      A                      A                      A
 Frequencies --    641.2993               648.4338               725.8157
 Red. masses --      5.5835                 4.2417                 3.1466
 Frc consts  --      1.3529                 1.0508                 0.9766
 IR Inten    --     21.3695                30.8976                 1.7409

                     37                     38                     39
                      A                      A                      A
 Frequencies --    739.5172               766.7334               785.8548
 Red. masses --      2.0541                 3.4019                 3.0397
 Frc consts  --      0.6619                 1.1783                 1.1060
 IR Inten    --      2.1520                 6.0785                 4.6205

                     40                     41                     42
                      A                      A                      A
 Frequencies --    831.5341               837.7068               885.4059
 Red. masses --      2.2504                 6.1065                 2.4538
 Frc consts  --      0.9168                 2.5248                 1.1334
 IR Inten    --      4.5090                 7.4635                 4.2205

                     43                     44                     45
                      A                      A                      A
 Frequencies --    899.9961               922.9703               977.0479
 Red. masses --      2.5264                 3.1010                 1.3537
 Frc consts  --      1.2057                 1.5564                 0.7614
 IR Inten    --     12.4776                 8.5356                 0.5584

                     46                     47                     48
                      A                      A                      A
 Frequencies --    982.3931              1001.2787              1033.3391
 Red. masses --      1.5176                 1.6810                 1.6022
 Frc consts  --      0.8629                 0.9930                 1.0080
 IR Inten    --     83.1152                34.4061                14.8613

                     49                     50                     51
                      A                      A                      A
 Frequencies --   1069.4234              1099.9899              1102.5012
 Red. masses --      2.2394                 2.7441                 1.7735
 Frc consts  --      1.5090                 1.9563                 1.2701
 IR Inten    --     18.8227                14.7549                57.8868

                     52                     53                     54
                      A                      A                      A
 Frequencies --   1151.9165              1156.9088              1209.6246
 Red. masses --      3.7327                 4.1078                 2.6473
 Frc consts  --      2.9182                 3.2393                 2.2822
 IR Inten    --     19.6149                15.7872                 3.0340

                     55                     56                     57
                      A                      A                      A
 Frequencies --   1218.1162              1262.6518              1407.8732
 Red. masses --      8.8319                 7.0063                 8.8522
 Frc consts  --      7.7211                 6.5812                10.3378
 IR Inten    --    145.7938                 9.6758                38.7351

                     58                     59                     60
                      A                      A                      A
 Frequencies --   1433.0868              1493.1153              1630.5785
 Red. masses --     10.0090                 8.8880                10.6080
 Frc consts  --     12.1111                11.6746                16.6175
 IR Inten    --     44.1516                47.5270               122.6853

                     61                     62                     63
                      A                      A                      A
 Frequencies --   1680.2200              4329.6752              4412.0742
 Red. masses --     10.4288                 1.0866                 1.0596
 Frc consts  --     17.3468                12.0010                12.1523
 IR Inten    --     22.8968                54.5210                36.0503

                     64                     65                     66
                      A                      A                      A
 Frequencies --   4418.2779              4463.4875              4534.1239
 Red. masses --      1.0606                 1.0324                 1.1088
 Frc consts  --     12.1981                12.1187                13.4310
 IR Inten    --     29.0623                30.7473                 5.8212

                     67                     68                     69
                      A                      A                      A
 Frequencies --   4541.6155              4650.6873              4660.7971
 Red. masses --      1.1096                 1.0667                 1.1063
 Frc consts  --     13.4847                13.5938                14.1599
 IR Inten    --     27.0569                32.7734                20.3726

                     70                     71                     72
                      A                      A                      A
 Frequencies --   4683.4573              4977.4138              5009.9749
 Red. masses --      1.1065                 1.0873                 1.0876
 Frc consts  --     14.3003                15.8715                16.0843
 IR Inten    --      0.7558                 6.0610                 5.3677

                     73                     74                     75
                      A                      A                      A
 Frequencies --   5019.6539              5025.8908              6396.2241
 Red. masses --      1.0889                 1.0909                 1.0753
 Frc consts  --     16.1652                16.2355                25.9196
 IR Inten    --     20.0020                17.6104                 2.0616

 - Thermochemistry -
 -------------------
 Temperature   298.150 Kelvin.  Pressure   1.00000 Atm.
 Atom     1 has atomic number  7 and mass  14.00307

 Molecular mass:   180.10245 amu.
 Principal axes and moments of inertia in atomic units:
                           1         2         3
     Eigenvalues --  1340.280323888.470014067.39573
           X            0.99999  -0.00096  -0.00423
           Y            0.00103   0.99983   0.01848
           Z            0.00421  -0.01848   0.99982
 This molecule is an asymmetric top.
 Rotational symmetry number  1.
 Warning -- assumption of classical behavior for rotation
           may cause significant error
 Rotational temperatures (Kelvin)      0.06462     0.02227     0.02129
 Rotational constants (GHZ):           1.34654     0.46413     0.44371
   21 imaginary frequencies ignored.
 Zero-point vibrational energy     607208.9 (Joules/Mol)
                                  145.12641 (Kcal/Mol)
 Warning -- explicit consideration of  11 degrees of freedom as
           vibrations may cause significant error
 Vibrational temperatures:    236.91   278.58   353.92   441.64   504.40
          (Kelvin)            599.40   613.45   670.49   685.39   755.41
                              865.82   898.86   922.69   932.95  1044.29
                             1064.00  1103.16  1130.67  1196.39  1205.27
                             1273.90  1294.89  1327.95  1405.75  1413.44
                             1440.62  1486.74  1538.66  1582.64  1586.25
                             1657.35  1664.53  1740.38  1752.60  1816.67
                             2025.62  2061.89  2148.26  2346.04  2417.46
                             6229.44  6347.99  6356.92  6421.96  6523.59
                             6534.37  6691.30  6705.85  6738.45  7161.39
                             7208.24  7222.16  7231.14  9202.74

 Zero-point correction=                           0.231274 (Hartree/Particle)
 Thermal correction to Energy=                    0.239422
 Thermal correction to Enthalpy=                  0.240366
 Thermal correction to Gibbs Free Energy=         0.197625
 Sum of electronic and zero-point Energies=           -593.105106
 Sum of electronic and thermal Energies=              -593.096958
 Sum of electronic and thermal Enthalpies=            -593.096014
 Sum of electronic and thermal Free Energies=         -593.138754

                     E (Thermal)             CV                S
                      KCal/Mol        Cal/Mol-Kelvin    Cal/Mol-Kelvin
 Total                  150.239             34.628             89.955
 Electronic               0.000              0.000              0.000
 Translational            0.889              2.981             41.472
 Rotational               0.889              2.981             31.428
 Vibrational            148.462             28.667             17.055
 Vibration     1          0.623              1.886              2.496
 Vibration     2          0.635              1.849              2.193
 Vibration     3          0.660              1.769              1.759
 Vibration     4          0.697              1.660              1.379
 Vibration     5          0.727              1.574              1.164
 Vibration     6          0.780              1.434              0.904
 Vibration     7          0.788              1.413              0.871
 Vibration     8          0.823              1.325              0.749
 Vibration     9          0.833              1.302              0.720
 Vibration    10          0.880              1.195              0.598
 Vibration    11          0.960              1.028              0.447

 Normal termination of Gaussian 16 at Mon Mar  6 10:47:07 2023.
