 Gaussian 16, Revision C.01,
 Gaussian 16:  ES64L-G16RevC.01  3-Jul-2019

 ----------------------------------------------------------------------
 #p pop=(regular,nbo,savenbos) freq=noraman def2svp empiricaldispersion
 =gd3bj output=wfx pbe1pbe
 ----------------------------------------------------------------------

 ----------------------------------------
 TAHBOV_Complex_0_Ligand_1_NN_Cu_oriented
 ----------------------------------------
 Symbolic Z-matrix:
 Charge = -1 Multiplicity = 1

                         Standard orientation:
 ---------------------------------------------------------------------
 Center     Atomic      Atomic             Coordinates (Angstroms)
 Number     Number       Type             X           Y           Z
 ---------------------------------------------------------------------
      1          7           0       -2.081203   -1.212990   -0.078318
      2          7           0       -0.962105   -0.517028   -0.114009
      3          7           0        0.050797   -1.267922   -0.156028
      4          6           0       -3.273743   -0.475355   -0.052181
      5          6           0       -3.263429    0.912847   -0.136393
      6          1           0       -2.440909    1.376858   -0.234522
      7          6           0        1.296181   -0.571506   -0.103562
      8          6           0        1.235706    0.978139   -0.320653
      9          1           0        0.854320    1.170262   -1.214049
     10          1           0        0.639487    1.383149    0.358890
     11          6           0        3.131464    1.371598    1.170254
     12          1           0        2.515219    1.763027    1.837643
     13          1           0        4.014858    1.807331    1.268602
     14          6           0        3.263452   -0.127302    1.402136
     15          1           0        3.624180   -0.281895    2.322488
     16          6           0        1.889178   -0.743120    1.304451
     17          1           0        1.290480   -0.316747    1.966240
     18          1           0        1.946405   -1.707873    1.520766
     19          6           0        2.598103    1.600010   -0.218720
     20          1           0        2.514963    2.583989   -0.372847
     21          6           0        3.559252    1.032171   -1.228207
     22          1           0        4.448881    1.448926   -1.111994
     23          1           0        3.239978    1.235453   -2.143082
     24          6           0        3.669895   -0.499369   -1.045136
     25          1           0        4.279695   -0.896349   -1.731981
     26          6           0        2.291823   -1.131148   -1.117907
     27          1           0        2.379999   -2.106013   -0.972890
     28          1           0        1.928205   -0.995308   -2.028640
     29          6           0        4.233609   -0.725501    0.382790
     30          1           0        4.342322   -1.694386    0.551893
     31          1           0        5.119700   -0.293430    0.468554
     32          6           0       -4.457871    1.620810   -0.078238
     33          1           0       -4.450529    2.569911   -0.137031
     34          6           0       -5.662751    0.942789    0.065321
     35          1           0       -6.478870    1.427282    0.104628
     36          6           0       -4.478623   -1.153377    0.091377
     37          1           0       -4.484954   -2.101934    0.148917
     38          6           0       -5.672126   -0.444818    0.149561
     39          1           0       -6.496578   -0.907855    0.247542
 ---------------------------------------------------------------------

 SCF Done:  E(RPBE1PBE) =  -784.337858879     A.U. after   16 cycles

 The electronic state is 1-A.
 Alpha  occ. eigenvalues --  -14.26042 -14.20239 -14.18080 -10.11278 -10.11084
 Alpha  occ. eigenvalues --  -10.10562 -10.09986 -10.09722 -10.09386 -10.09135
 Alpha  occ. eigenvalues --  -10.08933 -10.07625 -10.07428 -10.07376 -10.06971
 Alpha  occ. eigenvalues --  -10.06469 -10.06451 -10.05829 -10.05334  -0.88136
 Alpha  occ. eigenvalues --   -0.79134  -0.74416  -0.71008  -0.69155  -0.69005
 Alpha  occ. eigenvalues --   -0.65909  -0.62406  -0.59783  -0.59139  -0.58800
 Alpha  occ. eigenvalues --   -0.51922  -0.50544  -0.49932  -0.49159  -0.46859
 Alpha  occ. eigenvalues --   -0.44457  -0.42502  -0.39386  -0.37758  -0.37163
 Alpha  occ. eigenvalues --   -0.36980  -0.36272  -0.33626  -0.32869  -0.32544
 Alpha  occ. eigenvalues --   -0.32073  -0.31805  -0.30742  -0.30406  -0.30200
 Alpha  occ. eigenvalues --   -0.28872  -0.27070  -0.26212  -0.24232  -0.23787
 Alpha  occ. eigenvalues --   -0.23144  -0.22891  -0.22611  -0.22150  -0.21818
 Alpha  occ. eigenvalues --   -0.21450  -0.20015  -0.18365  -0.16964  -0.12833
 Alpha  occ. eigenvalues --   -0.11801  -0.09325  -0.03320  -0.01863
 Alpha virt. eigenvalues --    0.14190   0.15106   0.16388   0.20511   0.20556
 Alpha virt. eigenvalues --    0.21053   0.21664   0.22277   0.23148   0.23232
 Alpha virt. eigenvalues --    0.24550   0.24834   0.25462   0.25627   0.26977

 Mulliken charges:
               1
     1  N   -0.273346
     2  N   -0.149090
     3  N   -0.231570
     4  C    0.103190
     5  C    0.042268
     6  H   -0.134288
     7  C   -0.269960
     8  C    0.272530
     9  H   -0.054288
    10  H   -0.038282
    11  C    0.226293
    12  H   -0.047161
    13  H   -0.065131
    14  C   -0.195621
    15  H   -0.051906
    16  C    0.300563
    17  H   -0.052683
    18  H   -0.057982
    19  C   -0.156806
    20  H   -0.055579
    21  C    0.225154
    22  H   -0.059882
    23  H   -0.046445
    24  C   -0.189607
    25  H   -0.049770
    26  C    0.292564
    27  H   -0.052741
    28  H   -0.051330
    29  C    0.217913
    30  H   -0.044998
    31  H   -0.057990
    32  C    0.072464
    33  H   -0.118790
    34  C    0.029009
    35  H   -0.125378
    36  C    0.042057
    37  H   -0.139843
    38  C    0.063405
    39  H   -0.116945
 Sum of Mulliken charges =  -1.00000

 Dipole moment (field-independent basis, Debye):
    X=              8.2083    Y=              3.4332    Z=              0.3104  Tot=              8.9028
 Quadrupole moment (field-independent basis, Debye-Ang):
   XX=           -163.1823   YY=           -124.5117   ZZ=           -118.5774
   XY=             -2.5045   XZ=             -0.6770   YZ=             -0.7828

  Exact polarizability:     313.012     -16.748     162.033      -4.138      -1.996     120.134
 Approx polarizability:     402.200     -36.279     263.128      -8.934      -3.130     177.787

 Summary of Natural Population Analysis:

                                       Natural Population
                Natural  -----------------------------------------------
    Atom  No    Charge         Core      Valence    Rydberg      Total
 -----------------------------------------------------------------------
      N    1   -0.45756      1.99936     5.42992    0.02828     7.45756
      N    2   -0.11179      1.99941     5.06782    0.04456     7.11179
      N    3   -0.38569      1.99930     5.34966    0.03673     7.38569
      C    4    0.16873      1.99898     3.80565    0.02663     5.83127
      C    5   -0.23746      1.99900     4.22292    0.01553     6.23746
      H    6    0.18428      0.00000     0.80910    0.00662     0.81572
      C    7    0.16341      1.99900     3.80391    0.03367     5.83659
      C    8   -0.41553      1.99905     4.39513    0.02135     6.41553
      H    9    0.19991      0.00000     0.79463    0.00545     0.80009
      H   10    0.21087      0.00000     0.78396    0.00517     0.78913
      C   11   -0.38720      1.99909     4.37078    0.01733     6.38720
      H   12    0.19376      0.00000     0.80245    0.00379     0.80624
      H   13    0.18201      0.00000     0.81389    0.00410     0.81799
      C   14   -0.20314      1.99906     4.18692    0.01716     6.20314
      H   15    0.19214      0.00000     0.80309    0.00477     0.80786
      C   16   -0.40194      1.99901     4.37930    0.02363     6.40194
      H   17    0.19946      0.00000     0.79557    0.00497     0.80054
      H   18    0.19699      0.00000     0.79699    0.00602     0.80301
      C   19   -0.20316      1.99904     4.18689    0.01723     6.20316
      H   20    0.19315      0.00000     0.80186    0.00498     0.80685
      C   21   -0.39038      1.99909     4.37397    0.01732     6.39038
      H   22    0.18374      0.00000     0.81221    0.00405     0.81626
      H   23    0.19164      0.00000     0.80440    0.00395     0.80836
      C   24   -0.19411      1.99909     4.17791    0.01711     6.19411
      H   25    0.19092      0.00000     0.80503    0.00405     0.80908
      C   26   -0.40753      1.99900     4.38602    0.02251     6.40753
      H   27    0.19904      0.00000     0.79503    0.00592     0.80096
      H   28    0.19780      0.00000     0.79677    0.00544     0.80220
      C   29   -0.38880      1.99910     4.37280    0.01691     6.38880
      H   30    0.19056      0.00000     0.80556    0.00388     0.80944
      H   31    0.18403      0.00000     0.81209    0.00388     0.81597
      C   32   -0.18967      1.99913     4.17632    0.01422     6.18967
      H   33    0.15909      0.00000     0.83742    0.00349     0.84091
      C   34   -0.27641      1.99912     4.26118    0.01611     6.27641
      H   35    0.15887      0.00000     0.83775    0.00337     0.84113
      C   36   -0.23307      1.99900     4.21691    0.01715     6.23307
      H   37    0.17623      0.00000     0.81813    0.00564     0.82377
      C   38   -0.19350      1.99913     4.18021    0.01416     6.19350
      H   39    0.16029      0.00000     0.83653    0.00319     0.83971
 =======================================================================
   * Total *   -1.00000     37.98295    99.50670    0.51035   138.00000

 ******   21 imaginary frequencies (negative Signs) ******

                      1                      2                      3
                      A                      A                      A
 Frequencies --  -1292.6060             -1182.6511             -1168.5475
 Red. masses --      1.0859                 1.0565                 1.0336
 Frc consts  --      1.0690                 0.8706                 0.8316
 IR Inten    --     81.2001                 0.0484                 1.4754

                      4                      5                      6
                      A                      A                      A
 Frequencies --  -1045.7092              -988.0367              -891.6647
 Red. masses --      1.0161                 1.0392                 1.0425
 Frc consts  --      0.6547                 0.5977                 0.4884
 IR Inten    --      0.0291                 0.5576                 0.9725

                      7                      8                      9
                      A                      A                      A
 Frequencies --   -886.4251              -883.3641              -868.1780
 Red. masses --      1.0341                 1.0368                 1.0312
 Frc consts  --      0.4787                 0.4767                 0.4579
 IR Inten    --      0.9276                 1.0941                 1.0040

                     10                     11                     12
                      A                      A                      A
 Frequencies --   -863.6538              -860.7210              -714.1976
 Red. masses --      1.0473                 1.0380                 1.0952
 Frc consts  --      0.4602                 0.4531                 0.3291
 IR Inten    --      0.0592                 0.5296                 1.2821

                     13                     14                     15
                      A                      A                      A
 Frequencies --   -695.9376              -641.6295              -509.3974
 Red. masses --      1.1750                 1.1872                 1.2060
 Frc consts  --      0.3353                 0.2880                 0.1844
 IR Inten    --      1.6184                 3.3620                11.9417

                     16                     17                     18
                      A                      A                      A
 Frequencies --   -429.7865              -346.8117              -335.8457
 Red. masses --      1.0510                 1.8564                 1.8323
 Frc consts  --      0.1144                 0.1316                 0.1218
 IR Inten    --      8.0366                 0.2487                 0.4905

                     19                     20                     21
                      A                      A                      A
 Frequencies --   -308.8924              -302.8028              -220.6929
 Red. masses --      2.0224                 2.0003                 2.4335
 Frc consts  --      0.1137                 0.1081                 0.0698
 IR Inten    --      0.0739                 0.2248                 2.5176

                     22                     23                     24
                      A                      A                      A
 Frequencies --     76.8547                91.0165               143.3316
 Red. masses --      1.7472                 2.1615                 1.7112
 Frc consts  --      0.0061                 0.0105                 0.0207
 IR Inten    --      3.4398                 5.4925                 3.7451

                     25                     26                     27
                      A                      A                      A
 Frequencies --    168.3998               220.4539               258.5828
 Red. masses --      7.9664                 5.1469                 3.2591
 Frc consts  --      0.1331                 0.1474                 0.1284
 IR Inten    --      0.2885                 8.2644                 1.1110

                     28                     29                     30
                      A                      A                      A
 Frequencies --    293.1123               299.8907               357.7241
 Red. masses --      4.1453                 1.3917                 2.7902
 Frc consts  --      0.2098                 0.0737                 0.2104
 IR Inten    --      2.2412                 0.3254                14.8798

                     31                     32                     33
                      A                      A                      A
 Frequencies --    364.9519               373.7287               380.0261
 Red. masses --      1.3050                 1.9277                 1.8412
 Frc consts  --      0.1024                 0.1586                 0.1567
 IR Inten    --      5.6967                 8.3964                 3.7295

                     34                     35                     36
                      A                      A                      A
 Frequencies --    406.3246               440.0013               447.9597
 Red. masses --      1.8944                 1.8604                 1.8898
 Frc consts  --      0.1843                 0.2122                 0.2234
 IR Inten    --      0.1685                 2.9511                 0.4067

                     37                     38                     39
                      A                      A                      A
 Frequencies --    466.8566               526.2862               544.2427
 Red. masses --      1.9123                 4.1556                10.9685
 Frc consts  --      0.2456                 0.6782                 1.9142
 IR Inten    --      1.1033                 5.8581                 0.0645

                     40                     41                     42
                      A                      A                      A
 Frequencies --    567.0918               585.6740               594.7024
 Red. masses --      1.4492                 1.2740                 1.3132
 Frc consts  --      0.2746                 0.2575                 0.2736
 IR Inten    --      0.2766                 2.1399                 2.0010

                     43                     44                     45
                      A                      A                      A
 Frequencies --    639.1739               644.9074               649.4164
 Red. masses --      1.5160                 9.7609                 1.9302
 Frc consts  --      0.3649                 2.3918                 0.4796
 IR Inten    --      0.1123                 1.6583                10.5779

                     46                     47                     48
                      A                      A                      A
 Frequencies --    655.7436               660.0096               726.4891
 Red. masses --      2.0963                 1.4534                 3.6099
 Frc consts  --      0.5311                 0.3730                 1.1225
 IR Inten    --     11.7379                 0.3528                 4.9084

                     49                     50                     51
                      A                      A                      A
 Frequencies --    733.0479               738.2396               772.7894
 Red. masses --      2.3843                 2.1842                 3.7460
 Frc consts  --      0.7549                 0.7014                 1.3181
 IR Inten    --      1.7805                 4.0651                 5.5851

                     52                     53                     54
                      A                      A                      A
 Frequencies --    780.7251               808.9258               812.8192
 Red. masses --      3.3230                 3.2022                 7.9749
 Frc consts  --      1.1934                 1.2346                 3.1043
 IR Inten    --      1.9166                 2.1923                 3.0253

                     55                     56                     57
                      A                      A                      A
 Frequencies --    813.6203               820.4817               890.4738
 Red. masses --      2.2754                 2.0884                 4.0427
 Frc consts  --      0.8875                 0.8283                 1.8887
 IR Inten    --      0.4638                 0.4539                 1.9451

                     58                     59                     60
                      A                      A                      A
 Frequencies --    907.4877               907.7678               934.6445
 Red. masses --      2.6428                 2.1233                 1.8405
 Frc consts  --      1.2823                 1.0309                 0.9473
 IR Inten    --      0.5604                 0.6376                 0.0392

                     61                     62                     63
                      A                      A                      A
 Frequencies --    947.7327               954.6521               963.2884
 Red. masses --      2.1775                 2.3130                 3.3279
 Frc consts  --      1.1524                 1.2420                 1.8194
 IR Inten    --      0.8658                 1.1008                 5.8196

                     64                     65                     66
                      A                      A                      A
 Frequencies --   1013.7164              1041.8690              1059.3405
 Red. masses --      5.3074                 6.3482                 3.2309
 Frc consts  --      3.2134                 4.0600                 2.1362
 IR Inten    --      3.1318                47.0202                 5.4634

                     67                     68                     69
                      A                      A                      A
 Frequencies --   1072.2602              1084.1911              1088.2189
 Red. masses --      2.6457                 1.6352                 1.1793
 Frc consts  --      1.7922                 1.1325                 0.8228
 IR Inten    --      2.5617                 4.8038                 0.8353

                     70                     71                     72
                      A                      A                      A
 Frequencies --   1094.3241              1111.1613              1119.8082
 Red. masses --      1.1808                 1.2074                 1.4801
 Frc consts  --      0.8332                 0.8783                 1.0935
 IR Inten    --      0.9423                32.3726                22.0843

                     73                     74                     75
                      A                      A                      A
 Frequencies --   1124.7849              1164.8714              1199.3363
 Red. masses --      1.7387                 1.3220                 3.6490
 Frc consts  --      1.2960                 1.0569                 3.0924
 IR Inten    --     12.2615                 8.8785                 0.2640

                     76                     77                     78
                      A                      A                      A
 Frequencies --   1210.1254              1224.3694              1246.4568
 Red. masses --      5.9331                 4.3462                 4.6900
 Frc consts  --      5.1191                 3.8387                 4.2932
 IR Inten    --     53.9288               221.2133                26.1742

                     79                     80                     81
                      A                      A                      A
 Frequencies --   1255.3586              1266.6942              1277.7509
 Red. masses --      4.8760                 6.4821                 5.7150
 Frc consts  --      4.5274                 6.1279                 5.4974
 IR Inten    --      1.9047               255.9436               283.2234

                     82                     83                     84
                      A                      A                      A
 Frequencies --   1282.6397              1307.0703              1313.0042
 Red. masses --      5.8057                 5.8954                 6.0221
 Frc consts  --      5.6275                 5.9342                 6.1169
 IR Inten    --      5.9485                13.2126                87.7983

                     85                     86                     87
                      A                      A                      A
 Frequencies --   1352.3579              1400.9381              1416.6170
 Red. masses --      9.4802                 8.5170                 9.2713
 Frc consts  --     10.2153                 9.8486                10.9622
 IR Inten    --    307.9297               204.5208               577.1666

                     88                     89                     90
                      A                      A                      A
 Frequencies --   1443.9419              1585.0735              1632.7801
 Red. masses --      9.2062                12.5818                11.2863
 Frc consts  --     11.3091                18.6249                17.7278
 IR Inten    --     18.2914               643.3889                52.3660

                     91                     92                     93
                      A                      A                      A
 Frequencies --   1686.9070              4100.4919              4108.3529
 Red. masses --     10.4617                 1.0870                 1.0867
 Frc consts  --     17.5402                10.7683                10.8067
 IR Inten    --      1.5513                43.4754                36.5973

                     94                     95                     96
                      A                      A                      A
 Frequencies --   4112.9387              4177.7444              4178.5268
 Red. masses --      1.0875                 1.0597                 1.0597
 Frc consts  --     10.8385                10.8974                10.9011
 IR Inten    --     36.4335                25.8516                13.1252

                     97                     98                     99
                      A                      A                      A
 Frequencies --   4180.9646              4182.3662              4182.8807
 Red. masses --      1.0604                 1.0603                 1.0597
 Frc consts  --     10.9210                10.9279                10.9243
 IR Inten    --     60.1070                42.8728                37.3800

                    100                    101                    102
                      A                      A                      A
 Frequencies --   4186.7927              4287.9033              4288.9510
 Red. masses --      1.0611                 1.1086                 1.1085
 Frc consts  --     10.9593                12.0088                12.0136
 IR Inten    --     34.4040                 5.9208                30.5927

                    103                    104                    105
                      A                      A                      A
 Frequencies --   4290.0320              4291.0004              4293.6725
 Red. masses --      1.1083                 1.1078                 1.1090
 Frc consts  --     12.0179                12.0174                12.0454
 IR Inten    --     11.2274                19.0170                28.1711

                    106                    107                    108
                      A                      A                      A
 Frequencies --   4295.2654              4743.4464              4750.4517
 Red. masses --      1.1083                 1.0862                 1.0880
 Frc consts  --     12.0469                14.3998                14.4657
 IR Inten    --     18.5435                 6.4031                12.5089

                    109                    110                    111
                      A                      A                      A
 Frequencies --   4763.0313              4768.9689              4777.3321
 Red. masses --      1.0896                 1.0919                 1.0899
 Frc consts  --     14.5639                14.6315                14.6558
 IR Inten    --     12.6102                11.0017                 1.6431

 - Thermochemistry -
 -------------------
 Temperature   298.150 Kelvin.  Pressure   1.00000 Atm.
 Atom     1 has atomic number  7 and mass  14.00307

 Molecular mass:   254.16572 amu.
 Principal axes and moments of inertia in atomic units:
                           1         2         3
     Eigenvalues --  1521.93520********************
           X            1.00000  -0.00084  -0.00020
           Y            0.00084   0.99997  -0.00717
           Z            0.00020   0.00717   0.99997
 This molecule is an asymmetric top.
 Rotational symmetry number  1.
 Warning -- assumption of classical behavior for rotation
           may cause significant error
 Rotational temperatures (Kelvin)      0.05691     0.00807     0.00772
 Rotational constants (GHZ):           1.18582     0.16807     0.16077
   21 imaginary frequencies ignored.
 Zero-point vibrational energy     875706.7 (Joules/Mol)
                                  209.29893 (Kcal/Mol)
 Warning -- explicit consideration of  21 degrees of freedom as
           vibrations may cause significant error
 Vibrational temperatures:    110.58   130.95   206.22   242.29   317.18
          (Kelvin)            372.04   421.72   431.48   514.69   525.08
                              537.71   546.77   584.61   633.06   644.51
                              671.70   757.21   783.04   815.92   842.65
                              855.64   919.63   927.88   934.37   943.47
                              949.61  1045.26  1054.69  1062.16  1111.87
                             1123.29  1163.86  1169.47  1170.62  1180.49
                             1281.19  1305.67  1306.08  1344.74  1363.58
                             1373.53  1385.96  1458.51  1499.02  1524.15
                             1542.74  1559.91  1565.70  1574.49  1598.71
                             1611.15  1618.31  1675.99  1725.58  1741.10
                             1761.59  1793.37  1806.18  1822.49  1838.40
                             1845.43  1880.58  1889.12  1945.74  2015.64
                             2038.20  2077.51  2280.57  2349.21  2427.08
                             5899.69  5911.00  5917.60  6010.84  6011.97
                             6015.48  6017.49  6018.23  6023.86  6169.34
                             6170.84  6172.40  6173.79  6177.64  6179.93
                             6824.76  6834.84  6852.94  6861.48  6873.52

 Zero-point correction=                           0.333539 (Hartree/Particle)
 Thermal correction to Energy=                    0.346630
 Thermal correction to Enthalpy=                  0.347574
 Thermal correction to Gibbs Free Energy=         0.294566
 Sum of electronic and zero-point Energies=           -784.004320
 Sum of electronic and thermal Energies=              -783.991229
 Sum of electronic and thermal Enthalpies=            -783.990284
 Sum of electronic and thermal Free Energies=         -784.043293

                     E (Thermal)             CV                S
                      KCal/Mol        Cal/Mol-Kelvin    Cal/Mol-Kelvin
 Total                  217.514             57.364            111.565
 Electronic               0.000              0.000              0.000
 Translational            0.889              2.981             42.499
 Rotational               0.889              2.981             33.572
 Vibrational            215.736             51.403             35.495
 Vibration     1          0.599              1.965              3.970
 Vibration     2          0.602              1.956              3.638
 Vibration     3          0.616              1.910              2.759
 Vibration     4          0.625              1.881              2.453
 Vibration     5          0.647              1.810              1.955
 Vibration     6          0.667              1.748              1.671
 Vibration     7          0.688              1.687              1.456
 Vibration     8          0.692              1.674              1.418
 Vibration     9          0.733              1.559              1.132
 Vibration    10          0.738              1.544              1.101
 Vibration    11          0.745              1.526              1.064
 Vibration    12          0.750              1.513              1.039
 Vibration    13          0.771              1.456              0.940
 Vibration    14          0.800              1.383              0.827
 Vibration    15          0.807              1.365              0.802
 Vibration    16          0.824              1.324              0.746
 Vibration    17          0.881              1.192              0.596
 Vibration    18          0.899              1.152              0.556
 Vibration    19          0.923              1.102              0.510
 Vibration    20          0.943              1.062              0.475
 Vibration    21          0.952              1.043              0.459

 Normal termination of Gaussian 16 at Mon Mar  6 11:37:26 2023.
