 Gaussian 16, Revision C.01,
 Gaussian 16:  ES64L-G16RevC.01  3-Jul-2019

 ----------------------------------------------------------------------
 #p pop=(regular,nbo,savenbos) freq=noraman def2svp empiricaldispersion
 =gd3bj output=wfx pbe1pbe
 ----------------------------------------------------------------------

 ----------------------------------------
 TANGOF_Complex_1_Ligand_2_ON_Cu_oriented
 ----------------------------------------
 Symbolic Z-matrix:
 Charge = -1 Multiplicity = 1

                         Standard orientation:
 ---------------------------------------------------------------------
 Center     Atomic      Atomic             Coordinates (Angstroms)
 Number     Number       Type             X           Y           Z
 ---------------------------------------------------------------------
      1          8           0       -1.117287   -3.257600    0.184944
      2          8           0       -4.469950    1.910204   -0.357733
      3          8           0       -2.638285    2.768550    0.329551
      4          7           0        1.372857   -1.932311    0.694011
      5          7           0       -3.307167    1.811516   -0.002131
      6          6           0       -1.576629   -2.042230    0.122518
      7          6           0       -2.815926   -1.815365   -0.511463
      8          1           0       -3.258110   -2.529101   -0.910590
      9          6           0       -3.385748   -0.563405   -0.554197
     10          1           0       -4.214611   -0.433385   -0.958211
     11          6           0       -2.699669    0.500901    0.016727
     12          6           0       -1.478139    0.321488    0.628012
     13          1           0       -1.037671    1.052717    0.995523
     14          6           0       -0.897535   -0.931525    0.702557
     15          6           0        0.392592   -1.114563    1.447010
     16          1           0        0.778086   -0.244601    1.629499
     17          6           0        1.825235   -1.289346   -0.570491
     18          1           0        1.040099   -1.185482   -1.146246
     19          6           0        2.403317    0.093205   -0.332565
     20          6           0        1.804305    1.206786   -0.890163
     21          1           0        1.038945    1.120328   -1.411839
     22          6           0        2.813531   -2.187731   -1.298177
     23          1           0        2.420446   -3.053539   -1.432996
     24          1           0        3.610869   -2.277322   -0.773283
     25          1           0        3.032282   -1.799618   -2.149037
     26          6           0        2.365126    2.465363   -0.657677
     27          1           0        1.949985    3.213312   -1.021963
     28          6           0        3.473311    2.637291    0.064521
     29          1           0        3.839256    3.484810    0.176913
     30          6           0        4.059340    1.546720    0.634880
     31          1           0        4.813137    1.664409    1.168599
     32          6           0        3.557092    0.255490    0.439314
     33          1           0        2.099577   -2.010104    1.177641
     34          1           0        0.208688   -1.543312    2.297954
     35          1           0        3.982150   -0.481251    0.815943
 ---------------------------------------------------------------------

 SCF Done:  E(RPBE1PBE) =  -913.789879909     A.U. after   19 cycles

 The electronic state is 1-A.
 Alpha  occ. eigenvalues --  -19.07221 -19.07083 -18.97569 -14.46110 -14.23530
 Alpha  occ. eigenvalues --  -10.13896 -10.13593 -10.13129 -10.13014 -10.12346
 Alpha  occ. eigenvalues --  -10.12204 -10.12194 -10.11922 -10.11155 -10.10372
 Alpha  occ. eigenvalues --  -10.08505 -10.08429 -10.08297 -10.08264 -10.05824
 Alpha  occ. eigenvalues --   -1.09988  -0.91557  -0.82772  -0.81149  -0.79147
 Alpha  occ. eigenvalues --   -0.74009  -0.70964  -0.68691  -0.67262  -0.65198
 Alpha  occ. eigenvalues --   -0.64062  -0.58181  -0.56879  -0.55559  -0.52550
 Alpha  occ. eigenvalues --   -0.51541  -0.49314  -0.47411  -0.44313  -0.41961
 Alpha  occ. eigenvalues --   -0.41550  -0.40285  -0.39545  -0.38466  -0.37898
 Alpha  occ. eigenvalues --   -0.36730  -0.36557  -0.36085  -0.35296  -0.34189
 Alpha  occ. eigenvalues --   -0.32576  -0.31413  -0.30878  -0.29850  -0.29552
 Alpha  occ. eigenvalues --   -0.28466  -0.27342  -0.26249  -0.25596  -0.24433
 Alpha  occ. eigenvalues --   -0.22943  -0.21347  -0.17776  -0.17646  -0.17307
 Alpha  occ. eigenvalues --   -0.16991  -0.16879  -0.14813  -0.12726  -0.11747
 Alpha  occ. eigenvalues --   -0.06104  -0.04849
 Alpha virt. eigenvalues --    0.08234   0.08924   0.09484   0.14051   0.17548
 Alpha virt. eigenvalues --    0.19122   0.19857   0.21001   0.22128   0.23188
 Alpha virt. eigenvalues --    0.23906   0.24872   0.24956   0.25769   0.26877

 Mulliken charges:
               1
     1  O   -0.421696
     2  O   -0.338628
     3  O   -0.333266
     4  N   -0.206627
     5  N    0.221259
     6  C    0.200081
     7  C    0.012840
     8  H   -0.151118
     9  C    0.071317
    10  H   -0.138688
    11  C    0.154226
    12  C    0.049986
    13  H   -0.155517
    14  C   -0.299741
    15  C    0.408320
    16  H   -0.070492
    17  C    0.092109
    18  H   -0.027733
    19  C   -0.102904
    20  C    0.106753
    21  H   -0.105754
    22  C    0.241617
    23  H   -0.011592
    24  H   -0.057978
    25  H   -0.037057
    26  C    0.103274
    27  H   -0.102008
    28  C    0.096407
    29  H   -0.117021
    30  C    0.091787
    31  H   -0.112698
    32  C    0.084426
    33  H    0.024962
    34  H   -0.042628
    35  H   -0.126219
 Sum of Mulliken charges =  -1.00000

 Dipole moment (field-independent basis, Debye):
    X=              9.7600    Y=              2.5281    Z=             -0.1926  Tot=             10.0840
 Quadrupole moment (field-independent basis, Debye-Ang):
   XX=           -154.3734   YY=           -158.2789   ZZ=           -115.3237
   XY=              8.8917   XZ=              3.1105   YZ=              0.7335

  Exact polarizability:     195.557     -18.977     223.620      26.279       2.845     110.847
 Approx polarizability:     290.179     -62.308     435.298      58.002      -1.751     178.441

 Summary of Natural Population Analysis:

                                       Natural Population
                Natural  -----------------------------------------------
    Atom  No    Charge         Core      Valence    Rydberg      Total
 -----------------------------------------------------------------------
      O    1   -0.71292      1.99980     6.70517    0.00796     8.71292
      O    2   -0.47812      1.99975     6.46357    0.01479     8.47812
      O    3   -0.47367      1.99975     6.45882    0.01511     8.47367
      N    4   -0.62826      1.99935     5.60882    0.02009     7.62826
      N    5    0.50922      1.99928     4.43542    0.05608     6.49078
      C    6    0.39122      1.99883     3.56975    0.04019     5.60878
      C    7   -0.25713      1.99899     4.23830    0.01983     6.25713
      H    8    0.16742      0.00000     0.82761    0.00497     0.83258
      C    9   -0.17614      1.99904     4.16032    0.01678     6.17614
      H   10    0.18048      0.00000     0.81523    0.00430     0.81952
      C   11   -0.00303      1.99882     3.98179    0.02242     6.00303
      C   12   -0.18412      1.99891     4.16710    0.01810     6.18412
      H   13    0.18561      0.00000     0.80966    0.00472     0.81439
      C   14   -0.13801      1.99894     4.11955    0.01952     6.13801
      C   15   -0.16122      1.99897     4.14243    0.01983     6.16122
      H   16    0.15780      0.00000     0.83751    0.00469     0.84220
      C   17    0.00082      1.99896     3.97885    0.02137     5.99918
      H   18    0.19256      0.00000     0.80235    0.00509     0.80744
      C   19   -0.03754      1.99899     4.02031    0.01823     6.03754
      C   20   -0.16565      1.99896     4.15099    0.01570     6.16565
      H   21    0.18029      0.00000     0.81664    0.00307     0.81971
      C   22   -0.53871      1.99914     4.52968    0.00989     6.53871
      H   23    0.19956      0.00000     0.79641    0.00403     0.80044
      H   24    0.16986      0.00000     0.82726    0.00288     0.83014
      H   25    0.18370      0.00000     0.81376    0.00254     0.81630
      C   26   -0.15178      1.99908     4.13783    0.01488     6.15178
      H   27    0.16597      0.00000     0.83073    0.00331     0.83403
      C   28   -0.20236      1.99907     4.18886    0.01442     6.20236
      H   29    0.16633      0.00000     0.83036    0.00331     0.83367
      C   30   -0.16236      1.99911     4.14858    0.01467     6.16236
      H   31    0.15950      0.00000     0.83725    0.00325     0.84050
      C   32   -0.19224      1.99900     4.17705    0.01620     6.19224
      H   33    0.30132      0.00000     0.69184    0.00684     0.69868
      H   34    0.18698      0.00000     0.80869    0.00433     0.81302
      H   35    0.16464      0.00000     0.83131    0.00405     0.83536
 =======================================================================
   * Total *   -1.00000     39.98274   103.55980    0.45747   144.00000

 ******   27 imaginary frequencies (negative Signs) ******

                      1                      2                      3
                      A                      A                      A
 Frequencies --  -1623.0532             -1466.5877             -1427.7234
 Red. masses --      1.0844                 1.0847                 1.0680
 Frc consts  --      1.6831                 1.3746                 1.2827
 IR Inten    --    144.5493                77.0462                30.6588

                      4                      5                      6
                      A                      A                      A
 Frequencies --  -1388.0388             -1372.7272             -1324.5509
 Red. masses --      1.0094                 1.0479                 1.0426
 Frc consts  --      1.1458                 1.1635                 1.0777
 IR Inten    --      0.2099                 0.9625                12.6308

                      7                      8                      9
                      A                      A                      A
 Frequencies --  -1318.0609             -1250.3800             -1223.9750
 Red. masses --      1.0430                 1.0208                 1.0354
 Frc consts  --      1.0676                 0.9403                 0.9139
 IR Inten    --      0.9903                 0.0745                 0.7824

                     10                     11                     12
                      A                      A                      A
 Frequencies --  -1165.3235             -1078.7680             -1021.0190
 Red. masses --      1.0364                 1.0302                 1.0570
 Frc consts  --      0.8292                 0.7064                 0.6492
 IR Inten    --      0.3605                 5.9846                 8.7590

                     13                     14                     15
                      A                      A                      A
 Frequencies --  -1011.1618              -971.6917              -936.7964
 Red. masses --      1.0516                 1.0807                 1.0771
 Frc consts  --      0.6335                 0.6012                 0.5569
 IR Inten    --      2.2353                 7.0959                 2.1827

                     16                     17                     18
                      A                      A                      A
 Frequencies --   -924.7998              -901.5414              -895.8785
 Red. masses --      1.1118                 1.1233                 1.0673
 Frc consts  --      0.5603                 0.5379                 0.5047
 IR Inten    --     12.0018                 0.7828                 4.3987

                     19                     20                     21
                      A                      A                      A
 Frequencies --   -853.6853              -840.4340              -730.3723
 Red. masses --      1.1132                 1.0654                 1.1221
 Frc consts  --      0.4780                 0.4434                 0.3527
 IR Inten    --      6.4861                 7.2947                 6.1596

                     22                     23                     24
                      A                      A                      A
 Frequencies --   -702.4354              -440.5078              -318.9578
 Red. masses --      1.0524                 1.5522                 1.9710
 Frc consts  --      0.3059                 0.1775                 0.1181
 IR Inten    --     12.3538                 4.6668                 0.7443

                     25                     26                     27
                      A                      A                      A
 Frequencies --   -254.3083               -91.4732               -65.5139
 Red. masses --      2.2950                 6.1653                 9.3458
 Frc consts  --      0.0874                 0.0304                 0.0236
 IR Inten    --      1.9305                 2.2973                 2.9264

                     28                     29                     30
                      A                      A                      A
 Frequencies --    102.9743               122.9663               152.1504
 Red. masses --      9.1127                10.6948                 8.4177
 Frc consts  --      0.0569                 0.0953                 0.1148
 IR Inten    --      0.2322                 7.1743                 0.2513

                     31                     32                     33
                      A                      A                      A
 Frequencies --    156.8395               252.0930               254.6491
 Red. masses --      7.3899                 8.3029                 8.3133
 Frc consts  --      0.1071                 0.3109                 0.3176
 IR Inten    --      2.9076                 1.1977                 3.3789

                     34                     35                     36
                      A                      A                      A
 Frequencies --    304.2870               357.0023               362.8676
 Red. masses --      7.1463                 1.1866                 5.2434
 Frc consts  --      0.3898                 0.0891                 0.4068
 IR Inten    --      2.1799                17.2108                 5.0417

                     37                     38                     39
                      A                      A                      A
 Frequencies --    399.5940               407.2281               435.8463
 Red. masses --      6.3871                 6.4175                 4.2814
 Frc consts  --      0.6009                 0.6270                 0.4792
 IR Inten    --      3.2383                 2.1918                 1.1241

                     40                     41                     42
                      A                      A                      A
 Frequencies --    460.5854               493.6428               542.4593
 Red. masses --      6.2680                 3.0342                10.2744
 Frc consts  --      0.7834                 0.4356                 1.7813
 IR Inten    --     12.5213                 1.8954                 0.0188

                     43                     44                     45
                      A                      A                      A
 Frequencies --    556.5218               568.1617               615.5891
 Red. masses --      5.4506                 4.3126                 6.7623
 Frc consts  --      0.9946                 0.8202                 1.5098
 IR Inten    --      0.0993                 5.9428                 1.0739

                     46                     47                     48
                      A                      A                      A
 Frequencies --    624.2029               664.6392               678.3913
 Red. masses --     10.2238                 5.7730                 5.7967
 Frc consts  --      2.3470                 1.5025                 1.5718
 IR Inten    --      5.7218                13.2349                 7.9816

                     49                     50                     51
                      A                      A                      A
 Frequencies --    706.8081               725.4329               747.3812
 Red. masses --      3.2922                 3.4998                 3.7492
 Frc consts  --      0.9690                 1.0852                 1.2339
 IR Inten    --     22.8370                40.1902                 9.5671

                     52                     53                     54
                      A                      A                      A
 Frequencies --    776.6520               781.4980               790.9275
 Red. masses --      4.8218                 2.8825                12.2814
 Frc consts  --      1.7136                 1.0372                 4.5266
 IR Inten    --      4.9479                 3.6567                 9.1955

                     55                     56                     57
                      A                      A                      A
 Frequencies --    809.3660               828.1897               844.0348
 Red. masses --      3.8374                 2.4987                 7.6005
 Frc consts  --      1.4811                 1.0098                 3.1902
 IR Inten    --      2.2665                15.7757                19.1704

                     58                     59                     60
                      A                      A                      A
 Frequencies --    851.1175               878.3427               895.4525
 Red. masses --      3.4485                 6.7720                 6.3559
 Frc consts  --      1.4718                 3.0782                 3.0027
 IR Inten    --      2.8311                 4.4790                 0.1730

                     61                     62                     63
                      A                      A                      A
 Frequencies --    903.7877               959.9400               993.0162
 Red. masses --      2.0117                 1.4971                 1.2918
 Frc consts  --      0.9681                 0.8128                 0.7505
 IR Inten    --     20.0178                 9.7315                 8.2878

                     64                     65                     66
                      A                      A                      A
 Frequencies --   1025.8320              1038.9886              1059.6681
 Red. masses --      2.3610                 2.2519                 3.9804
 Frc consts  --      1.4639                 1.4323                 2.6334
 IR Inten    --     14.0450                13.6709                 2.0595

                     67                     68                     69
                      A                      A                      A
 Frequencies --   1088.1372              1156.1867              1162.8113
 Red. masses --      4.2939                 4.4149                 3.5908
 Frc consts  --      2.9955                 3.4772                 2.8606
 IR Inten    --     13.4281                45.0840                 2.5888

                     70                     71                     72
                      A                      A                      A
 Frequencies --   1239.1073              1262.4401              1332.6334
 Red. masses --      7.1376                 8.2871                 9.4735
 Frc consts  --      6.4568                 7.7817                 9.9124
 IR Inten    --      4.1050                30.7847               189.4781

                     73                     74                     75
                      A                      A                      A
 Frequencies --   1338.4334              1458.9979              1471.2717
 Red. masses --      8.2908                14.2251                 9.3917
 Frc consts  --      8.7507                17.8408                11.9779
 IR Inten    --      1.0148              1338.4832                 7.7792

                     76                     77                     78
                      A                      A                      A
 Frequencies --   1472.1146              1484.7377              1493.9322
 Red. masses --     10.3568                10.7596                 8.1110
 Frc consts  --     13.2239                13.9748                10.6656
 IR Inten    --     25.2047                27.5766                 0.2936

                     79                     80                     81
                      A                      A                      A
 Frequencies --   1529.2808              1639.0066              1661.5908
 Red. masses --      9.6109                10.8188                10.2683
 Frc consts  --     13.2430                17.1234                16.7032
 IR Inten    --     13.1740                95.4353                 8.4492

                     82                     83                     84
                      A                      A                      A
 Frequencies --   1682.9381              1754.5922              1783.4601
 Red. masses --     11.3976                13.3256                 9.8180
 Frc consts  --     19.0196                24.1707                18.3992
 IR Inten    --     29.7494               281.8971                 0.3866

                     85                     86                     87
                      A                      A                      A
 Frequencies --   4379.4280              4416.3041              4470.4518
 Red. masses --      1.0880                 1.0592                 1.0323
 Frc consts  --     12.2943                12.1711                12.1545
 IR Inten    --      3.9825                23.0387                11.9922

                     88                     89                     90
                      A                      A                      A
 Frequencies --   4532.7147              4673.0259              4684.4594
 Red. masses --      1.1090                 1.1067                 1.1066
 Frc consts  --     13.4243                14.2389                14.3070
 IR Inten    --      7.3724                 2.7841                 5.9056

                     91                     92                     93
                      A                      A                      A
 Frequencies --   5009.2696              5021.6860              5022.9685
 Red. masses --      1.0869                 1.0884                 1.0875
 Frc consts  --     16.0691                16.1715                16.1662
 IR Inten    --      2.2771                 0.6771                 2.3143

                     94                     95                     96
                      A                      A                      A
 Frequencies --   5030.5360              5033.7051              5040.3490
 Red. masses --      1.0896                 1.0904                 1.0927
 Frc consts  --     16.2455                16.2779                16.3564
 IR Inten    --      1.6475                 0.9465                 1.9205

                     97                     98                     99
                      A                      A                      A
 Frequencies --   5041.1528              5042.0155              5554.7094
 Red. masses --      1.0894                 1.0894                 1.0752
 Frc consts  --     16.3111                16.3177                19.5461
 IR Inten    --      0.5720                 1.4910                 1.4924

 - Thermochemistry -
 -------------------
 Temperature   298.150 Kelvin.  Pressure   1.00000 Atm.
 Atom     1 has atomic number  8 and mass  15.99491

 Molecular mass:   271.10827 amu.
 Principal axes and moments of inertia in atomic units:
                           1         2         3
     Eigenvalues --  3714.949877399.11063**********
           X            0.99997   0.00809   0.00124
           Y           -0.00810   0.99994   0.00778
           Z           -0.00117  -0.00779   0.99997
 This molecule is an asymmetric top.
 Rotational symmetry number  1.
 Warning -- assumption of classical behavior for rotation
           may cause significant error
 Rotational temperatures (Kelvin)      0.02331     0.01171     0.00849
 Rotational constants (GHZ):           0.48580     0.24391     0.17683
   27 imaginary frequencies ignored.
 Zero-point vibrational energy     736263.1 (Joules/Mol)
                                  175.97110 (Kcal/Mol)
 Warning -- explicit consideration of  18 degrees of freedom as
           vibrations may cause significant error
 Vibrational temperatures:    148.16   176.92   218.91   225.66   362.71
          (Kelvin)            366.38   437.80   513.65   522.09   574.93
                              585.91   627.09   662.68   710.24   780.48
                              800.71   817.46   885.70   898.09   956.27
                              976.05  1016.94  1043.74  1075.31  1117.43
                             1124.40  1137.97  1164.50  1191.58  1214.38
                             1224.57  1263.74  1288.36  1300.35  1381.14
                             1428.73  1475.94  1494.87  1524.63  1565.59
                             1663.49  1673.03  1782.80  1816.37  1917.36
                             1925.71  2099.17  2116.83  2118.04  2136.21
                             2149.44  2200.29  2358.16  2390.66  2421.37
                             2524.47  2566.00  6301.02  6354.08  6431.98
                             6521.57  6723.44  6739.89  7207.22  7225.09
                             7226.93  7237.82  7242.38  7251.94  7253.09
                             7254.34  7991.99

 Zero-point correction=                           0.280428 (Hartree/Particle)
 Thermal correction to Energy=                    0.291842
 Thermal correction to Enthalpy=                  0.292786
 Thermal correction to Gibbs Free Energy=         0.242330
 Sum of electronic and zero-point Energies=           -913.509452
 Sum of electronic and thermal Energies=              -913.498038
 Sum of electronic and thermal Enthalpies=            -913.497094
 Sum of electronic and thermal Free Energies=         -913.547549

                     E (Thermal)             CV                S
                      KCal/Mol        Cal/Mol-Kelvin    Cal/Mol-Kelvin
 Total                  183.134             48.110            106.193
 Electronic               0.000              0.000              0.000
 Translational            0.889              2.981             42.691
 Rotational               0.889              2.981             33.994
 Vibrational            181.356             42.148             29.508
 Vibration     1          0.605              1.947              3.397
 Vibration     2          0.610              1.930              3.053
 Vibration     3          0.619              1.900              2.645
 Vibration     4          0.621              1.895              2.588
 Vibration     5          0.664              1.759              1.716
 Vibration     6          0.665              1.755              1.698
 Vibration     7          0.695              1.666              1.393
 Vibration     8          0.732              1.561              1.135
 Vibration     9          0.737              1.549              1.110
 Vibration    10          0.766              1.471              0.964
 Vibration    11          0.772              1.455              0.936
 Vibration    12          0.796              1.392              0.840
 Vibration    13          0.818              1.337              0.764
 Vibration    14          0.849              1.264              0.674
 Vibration    15          0.898              1.156              0.560
 Vibration    16          0.912              1.125              0.531
 Vibration    17          0.924              1.100              0.508
 Vibration    18          0.975              0.999              0.424

 Normal termination of Gaussian 16 at Mon Mar  6 11:29:42 2023.
