 Gaussian 16, Revision C.01,
 Gaussian 16:  ES64L-G16RevC.01  3-Jul-2019

 ----------------------------------------------------------------------
 #p pop=(regular,nbo,savenbos) freq=noraman def2svp empiricaldispersion
 =gd3bj output=wfx pbe1pbe
 ----------------------------------------------------------------------

 ----------------------------------------
 TAYNOX_Complex_0_Ligand_1_ON_Cu_oriented
 ----------------------------------------
 Symbolic Z-matrix:
 Charge = -1 Multiplicity = 1

                         Standard orientation:
 ---------------------------------------------------------------------
 Center     Atomic      Atomic             Coordinates (Angstroms)
 Number     Number       Type             X           Y           Z
 ---------------------------------------------------------------------
      1         35           0       -3.743725   -0.936148    0.163188
      2          8           0        1.067585    2.570600   -0.366285
      3          7           0        2.627130    0.262143   -0.421418
      4          6           0        0.065448    1.774843   -0.259372
      5          6           0       -1.250423    2.292996   -0.167975
      6          6           0       -2.330608    1.529994   -0.056647
      7          6           0       -2.194695    0.138561    0.026627
      8          6           0       -0.947632   -0.412076   -0.040455
      9          6           0        0.179471    0.358405   -0.177282
     10          6           0        1.449102   -0.335222   -0.201736
     11          6           0        3.824358   -0.650713   -0.399749
     12          1           0       -1.380775    3.241597   -0.243942
     13          1           0       -3.216589    1.912780    0.014301
     14          1           0       -0.843555   -1.356871    0.008944
     15          1           0        1.431050   -1.306139   -0.099222
     16          6           0        3.981449   -1.468784   -1.553106
     17          1           0        4.501434   -0.997812   -2.289562
     18          1           0        4.441325   -2.310941   -1.464640
     19          6           0        4.578045   -0.522491    0.642589
     20          6           0        4.341514   -0.083479    1.919469
     21          1           0        4.893673   -1.415446    0.834748
     22          1           0        5.219780    0.043279    0.415664
     23          1           0        3.565155   -0.700466    2.303764
     24          1           0        3.882268    0.758684    1.882283
     25          1           0        3.287980   -1.395775   -0.008974
     26          1           0        5.003177   -0.138403    2.467860
     27          1           0        3.138699   -1.701320   -2.046765
 ---------------------------------------------------------------------

 SCF Done:  E(RPBE1PBE) =  -3129.11439604     A.U. after   17 cycles

 The electronic state is 1-A.
 Alpha  occ. eigenvalues -- -483.05904 -62.49269 -56.28232 -56.27928 -56.27920
 Alpha  occ. eigenvalues --  -18.96100 -14.21561 -10.11721 -10.11137 -10.10656
 Alpha  occ. eigenvalues --  -10.09156 -10.08755 -10.07849 -10.07758 -10.06420
 Alpha  occ. eigenvalues --  -10.06333 -10.05636 -10.04829  -8.63876  -6.45260
 Alpha  occ. eigenvalues --   -6.44134  -6.44099  -2.53838  -2.53509  -2.53482
 Alpha  occ. eigenvalues --   -2.52577  -2.52577  -0.81503  -0.80512  -0.74130
 Alpha  occ. eigenvalues --   -0.73062  -0.68421  -0.66847  -0.63850  -0.59830
 Alpha  occ. eigenvalues --   -0.56376  -0.52080  -0.48589  -0.48112  -0.44599
 Alpha  occ. eigenvalues --   -0.40914  -0.39896  -0.37929  -0.35940  -0.34424
 Alpha  occ. eigenvalues --   -0.33977  -0.32551  -0.31703  -0.30286  -0.29006
 Alpha  occ. eigenvalues --   -0.26556  -0.25729  -0.25470  -0.23205  -0.22899
 Alpha  occ. eigenvalues --   -0.20826  -0.20338  -0.17723  -0.17039  -0.15845
 Alpha  occ. eigenvalues --   -0.14630  -0.11156  -0.08838  -0.04162  -0.03065
 Alpha virt. eigenvalues --    0.11544   0.16236   0.17049   0.17822   0.19869
 Alpha virt. eigenvalues --    0.20705   0.22920   0.24203   0.25174   0.25760
 Alpha virt. eigenvalues --    0.26077   0.27551   0.28202   0.28882   0.30299

 Mulliken charges:
               1
     1  Br  -0.161420
     2  O   -0.387803
     3  N   -0.262685
     4  C    0.170263
     5  C   -0.014988
     6  C    0.101238
     7  C   -0.087885
     8  C    0.068313
     9  C   -0.082718
    10  C    0.090943
    11  C    0.003807
    12  H   -0.124569
    13  H   -0.115445
    14  H   -0.143219
    15  H   -0.112721
    16  C    0.221014
    17  H   -0.055125
    18  H   -0.061470
    19  C    0.175216
    20  C    0.243771
    21  H   -0.066882
    22  H   -0.123758
    23  H   -0.047602
    24  H   -0.013047
    25  H   -0.069213
    26  H   -0.115946
    27  H   -0.028067
 Sum of Mulliken charges =  -1.00000

 Dipole moment (field-independent basis, Debye):
    X=             -0.7246    Y=             -6.1955    Z=              1.1543  Tot=              6.3436
 Quadrupole moment (field-independent basis, Debye-Ang):
   XX=           -126.7329   YY=           -113.1877   ZZ=           -101.4405
   XY=            -12.4351   XZ=              3.4119   YZ=              2.8371

  Exact polarizability:     226.377      -4.706     138.362      -9.235      -0.539      87.579
 Approx polarizability:     316.103      20.079     226.009     -19.876      -7.570     124.460

 Summary of Natural Population Analysis:

                                       Natural Population
                Natural  -----------------------------------------------
    Atom  No    Charge         Core      Valence    Rydberg      Total
 -----------------------------------------------------------------------
     Br    1   -0.03750     27.99917     7.01812    0.02022    35.03750
      O    2   -0.69320      1.99978     6.68487    0.00854     8.69320
      N    3   -0.50617      1.99942     5.48947    0.01729     7.50617
      C    4    0.41579      1.99889     3.54473    0.04059     5.58421
      C    5   -0.26829      1.99894     4.24955    0.01980     6.26829
      C    6   -0.21363      1.99892     4.19783    0.01688     6.21363
      C    7   -0.19428      1.99870     4.17439    0.02119     6.19428
      C    8   -0.19302      1.99885     4.17679    0.01738     6.19302
      C    9   -0.20373      1.99886     4.18533    0.01954     6.20373
      C   10    0.10746      1.99909     3.86878    0.02467     5.89254
      C   11   -0.01740      1.99853     3.99575    0.02312     6.01740
      H   12    0.17916      0.00000     0.81550    0.00534     0.82084
      H   13    0.18045      0.00000     0.81555    0.00400     0.81955
      H   14    0.17719      0.00000     0.81823    0.00457     0.82281
      H   15    0.11510      0.00000     0.87543    0.00947     0.88490
      C   16   -0.56946      1.99909     4.55834    0.01202     6.56946
      H   17    0.16908      0.00000     0.82307    0.00784     0.83092
      H   18    0.18188      0.00000     0.81492    0.00320     0.81812
      C   19   -0.37499      1.99870     4.35694    0.01935     6.37499
      C   20   -0.49145      1.99908     4.48151    0.01086     6.49145
      H   21    0.18474      0.00000     0.80934    0.00592     0.81526
      H   22    0.14401      0.00000     0.84344    0.01255     0.85599
      H   23    0.17167      0.00000     0.82346    0.00487     0.82833
      H   24    0.19875      0.00000     0.79593    0.00531     0.80125
      H   25    0.18523      0.00000     0.80033    0.01444     0.81477
      H   26    0.14078      0.00000     0.85652    0.00269     0.85922
      H   27    0.21182      0.00000     0.78533    0.00285     0.78818
 =======================================================================
   * Total *   -1.00000     53.98602    75.65947    0.35451   130.00000

 ******   19 imaginary frequencies (negative Signs) ******

                      1                      2                      3
                      A                      A                      A
 Frequencies --  -1977.9419             -1809.6046             -1658.7962
 Red. masses --      1.0550                 1.0608                 1.0344
 Frc consts  --      2.4318                 2.0468                 1.6770
 IR Inten    --      8.8990                 2.6041                15.4720

                      4                      5                      6
                      A                      A                      A
 Frequencies --  -1235.0736             -1192.9797             -1132.3714
 Red. masses --      1.0156                 1.1424                 1.0593
 Frc consts  --      0.9128                 0.9579                 0.8003
 IR Inten    --      0.7001                 0.3716                34.4747

                      7                      8                      9
                      A                      A                      A
 Frequencies --  -1106.5658              -998.8176              -890.7295
 Red. masses --      1.0528                 1.0543                 1.0855
 Frc consts  --      0.7596                 0.6197                 0.5074
 IR Inten    --      2.3651                12.4620                 2.3425

                     10                     11                     12
                      A                      A                      A
 Frequencies --   -849.1294              -843.8638              -590.9788
 Red. masses --      1.0200                 1.0813                 1.1405
 Frc consts  --      0.4333                 0.4537                 0.2347
 IR Inten    --      0.3586                10.6603                 2.5412

                     13                     14                     15
                      A                      A                      A
 Frequencies --   -557.4463              -431.1515              -385.1073
 Red. masses --      1.2809                 1.0750                 2.0341
 Frc consts  --      0.2345                 0.1177                 0.1777
 IR Inten    --      0.4272                 6.9582                12.6010

                     16                     17                     18
                      A                      A                      A
 Frequencies --   -292.8370              -241.5232              -207.2257
 Red. masses --      2.5617                 1.6356                 2.9471
 Frc consts  --      0.1294                 0.0562                 0.0746
 IR Inten    --     20.0482                 1.5350                 7.3922

                     19                     20                     21
                      A                      A                      A
 Frequencies --    -39.1179                67.6029               107.9588
 Red. masses --      5.4058                 4.2299                10.7732
 Frc consts  --      0.0049                 0.0114                 0.0740
 IR Inten    --      2.0402                 5.5982                 0.7893

                     22                     23                     24
                      A                      A                      A
 Frequencies --    185.9495               218.7537               274.7178
 Red. masses --      6.8508                 7.8724                 8.3655
 Frc consts  --      0.1396                 0.2220                 0.3720
 IR Inten    --      1.7775                 0.6727                 2.8392

                     25                     26                     27
                      A                      A                      A
 Frequencies --    356.5901               368.1869               401.6281
 Red. masses --      4.8859                 4.6465                 1.4651
 Frc consts  --      0.3660                 0.3711                 0.1392
 IR Inten    --      0.7135                 0.6260                12.7146

                     28                     29                     30
                      A                      A                      A
 Frequencies --    423.9274               466.5384               521.5975
 Red. masses --      4.7887                 5.1240                 3.1513
 Frc consts  --      0.5070                 0.6571                 0.5051
 IR Inten    --      4.3571                 1.9102                 6.6909

                     31                     32                     33
                      A                      A                      A
 Frequencies --    549.0884               587.7286               621.7410
 Red. masses --      2.1325                 2.8412                10.9510
 Frc consts  --      0.3788                 0.5782                 2.4942
 IR Inten    --      3.6081                 7.5223                 1.7064

                     34                     35                     36
                      A                      A                      A
 Frequencies --    646.5451               658.7842               675.0043
 Red. masses --      7.4945                 3.9132                 4.4320
 Frc consts  --      1.8458                 1.0006                 1.1898
 IR Inten    --      0.6606                15.9945                22.5466

                     37                     38                     39
                      A                      A                      A
 Frequencies --    715.4344               814.8383               830.6035
 Red. masses --      4.1759                 3.1203                 2.0704
 Frc consts  --      1.2593                 1.2207                 0.8416
 IR Inten    --     27.1359                11.8259                17.6574

                     40                     41                     42
                      A                      A                      A
 Frequencies --    839.1207               873.4634               929.6673
 Red. masses --     10.9184                 2.6762                 4.0738
 Frc consts  --      4.5296                 1.2030                 2.0744
 IR Inten    --     12.2227                 3.6011                11.6877

                     43                     44                     45
                      A                      A                      A
 Frequencies --    989.6957              1033.1330              1041.9730
 Red. masses --      3.6692                 1.2253                 1.4067
 Frc consts  --      2.1175                 0.7705                 0.8998
 IR Inten    --     12.4210                14.4343                28.2074

                     46                     47                     48
                      A                      A                      A
 Frequencies --   1157.4253              1200.2528              1254.7505
 Red. masses --      1.7361                 1.3634                 7.0653
 Frc consts  --      1.3703                 1.1572                 6.5538
 IR Inten    --      1.4898                 9.2957                21.9157

                     49                     50                     51
                      A                      A                      A
 Frequencies --   1265.3846              1303.5332              1328.9695
 Red. masses --      1.1049                 1.1187                 1.0741
 Frc consts  --      1.0423                 1.1199                 1.1177
 IR Inten    --     11.5069                20.4763                12.8843

                     52                     53                     54
                      A                      A                      A
 Frequencies --   1344.7002              1356.5142              1382.3919
 Red. masses --      8.4389                 1.5284                 6.8441
 Frc consts  --      8.9906                 1.6571                 7.7060
 IR Inten    --      7.6298                 7.7263               281.8889

                     55                     56                     57
                      A                      A                      A
 Frequencies --   1391.0414              1498.3626              1522.7163
 Red. masses --      1.5761                10.0240                 6.9016
 Frc consts  --      1.7968                13.2594                 9.4284
 IR Inten    --     50.3714               118.7759                83.8728

                     58                     59                     60
                      A                      A                      A
 Frequencies --   1524.2851              1615.2509              1646.3104
 Red. masses --      9.6180                10.3004                10.6847
 Frc consts  --     13.1665                15.8338                17.0622
 IR Inten    --    152.5837               208.9997               156.8336

                     61                     62                     63
                      A                      A                      A
 Frequencies --   1779.8466              2133.8902              3399.3980
 Red. masses --     10.5892                 8.4751                 1.0688
 Frc consts  --     19.7641                22.7373                 7.2770
 IR Inten    --     55.7437                 5.4927                59.9603

                     64                     65                     66
                      A                      A                      A
 Frequencies --   3878.0324              3981.5335              4080.9339
 Red. masses --      1.0696                 1.0810                 1.0829
 Frc consts  --      9.4779                10.0971                10.6256
 IR Inten    --    150.3918                60.7214                 6.0909

                     67                     68                     69
                      A                      A                      A
 Frequencies --   4393.5809              4444.2270              4533.2818
 Red. masses --      1.0861                 1.0760                 1.0896
 Frc consts  --     12.3531                12.5211                13.1929
 IR Inten    --     47.8162                59.1012                 5.8356

                     70                     71                     72
                      A                      A                      A
 Frequencies --   4561.0187              4588.1610              4628.7593
 Red. masses --      1.0877                 1.0764                 1.0899
 Frc consts  --     13.3313                13.3504                13.7585
 IR Inten    --     33.9387                 6.0098                 5.8406

                     73                     74                     75
                      A                      A                      A
 Frequencies --   4731.6518              5571.0908              6036.5660
 Red. masses --      1.0892                 1.0868                 1.0899
 Frc consts  --     14.3670                19.8736                23.4000
 IR Inten    --      2.8879                70.3222                 1.7149

 - Thermochemistry -
 -------------------
 Temperature   298.150 Kelvin.  Pressure   1.00000 Atm.
 Atom     1 has atomic number 35 and mass  78.91834

 Molecular mass:   254.01805 amu.
 Principal axes and moments of inertia in atomic units:
                           1         2         3
     Eigenvalues --  1750.717059016.349159937.35469
           X            0.99933  -0.03617   0.00624
           Y            0.03597   0.99892   0.02949
           Z           -0.00730  -0.02924   0.99955
 This molecule is an asymmetric top.
 Rotational symmetry number  1.
 Warning -- assumption of classical behavior for rotation
           may cause significant error
 Rotational temperatures (Kelvin)      0.04947     0.00961     0.00872
 Rotational constants (GHZ):           1.03086     0.20016     0.18161
   19 imaginary frequencies ignored.
 Zero-point vibrational energy     590561.3 (Joules/Mol)
                                  141.14753 (Kcal/Mol)
 Warning -- explicit consideration of  13 degrees of freedom as
           vibrations may cause significant error
 Vibrational temperatures:     97.27   155.33   267.54   314.74   395.26
          (Kelvin)            513.05   529.74   577.85   609.94   671.24
                              750.46   790.02   845.61   894.55   930.23
                              947.84   971.18  1029.35  1172.37  1195.05
                             1207.31  1256.72  1337.58  1423.95  1486.45
                             1499.17  1665.28  1726.90  1805.31  1820.61
                             1875.49  1912.09  1934.72  1951.72  1988.95
                             2001.40  2155.81  2190.85  2193.11  2323.99
                             2368.67  2560.80  3070.19  4890.98  5579.62
                             5728.54  5871.55  6321.38  6394.25  6522.38
                             6562.29  6601.34  6659.75  6807.79  8015.56
                             8685.27

 Zero-point correction=                           0.224933 (Hartree/Particle)
 Thermal correction to Energy=                    0.234163
 Thermal correction to Enthalpy=                  0.235107
 Thermal correction to Gibbs Free Energy=         0.188125
 Sum of electronic and zero-point Energies=          -3128.889463
 Sum of electronic and thermal Energies=             -3128.880233
 Sum of electronic and thermal Enthalpies=           -3128.879289
 Sum of electronic and thermal Free Energies=        -3128.926271

                     E (Thermal)             CV                S
                      KCal/Mol        Cal/Mol-Kelvin    Cal/Mol-Kelvin
 Total                  146.940             36.235             98.883
 Electronic               0.000              0.000              0.000
 Translational            0.889              2.981             42.497
 Rotational               0.889              2.981             33.417
 Vibrational            145.162             30.274             22.970
 Vibration     1          0.598              1.970              4.222
 Vibration     2          0.606              1.943              3.305
 Vibration     3          0.632              1.859              2.268
 Vibration     4          0.647              1.813              1.969
 Vibration     5          0.677              1.720              1.566
 Vibration     6          0.732              1.562              1.137
 Vibration     7          0.741              1.538              1.087
 Vibration     8          0.767              1.467              0.957
 Vibration     9          0.786              1.418              0.879
 Vibration    10          0.824              1.324              0.747
 Vibration    11          0.877              1.202              0.606
 Vibration    12          0.904              1.142              0.546
 Vibration    13          0.945              1.058              0.471

 Normal termination of Gaussian 16 at Mon Mar  6 10:48:17 2023.
