 Gaussian 16, Revision C.01,
 Gaussian 16:  ES64L-G16RevC.01  3-Jul-2019

 ----------------------------------------------------------------------
 #p pop=(regular,nbo,savenbos) freq=noraman def2svp empiricaldispersion
 =gd3bj output=wfx pbe1pbe
 ----------------------------------------------------------------------

 ----------------------------------------
 TAYNIR_Complex_0_Ligand_1_ON_Cu_oriented
 ----------------------------------------
 Symbolic Z-matrix:
 Charge = -1 Multiplicity = 1

                         Standard orientation:
 ---------------------------------------------------------------------
 Center     Atomic      Atomic             Coordinates (Angstroms)
 Number     Number       Type             X           Y           Z
 ---------------------------------------------------------------------
      1          8           0        0.033090    2.816222   -0.014580
      2          7           0       -1.517602    0.745414    1.064934
      3          6           0       -2.754256    0.017163    1.495426
      4          6           0       -2.514716   -1.306713    2.184239
      5          1           0       -3.211176    0.579295    2.134382
      6          1           0       -1.939918   -1.206269    2.938366
      7          1           0       -3.339729   -1.694952    2.480943
      8          1           0       -2.103986   -1.923170    1.571778
      9         35           0        4.557800   -1.122164   -0.247516
     10          6           0        1.008231    1.927738   -0.010952
     11          6           0        3.313108    1.429416   -0.492698
     12          6           0        3.116562    0.113647   -0.127791
     13          6           0        1.913951   -0.301566    0.337685
     14          6           0        0.823101    0.592301    0.413994
     15          6           0       -0.416890    0.084130    0.894680
     16          1           0        1.810238   -1.216863    0.614682
     17          1           0       -0.449348   -0.848870    1.112392
     18          6           0        2.276423    2.313440   -0.444955
     19          1           0        2.409235    3.221232   -0.729508
     20          6           0       -3.658540   -0.152926    0.293714
     21          6           0       -5.023363    0.004834    0.432641
     22          6           0       -5.868285   -0.227190   -0.613100
     23          6           0       -5.395264   -0.646663   -1.820986
     24          6           0       -4.036941   -0.783885   -1.987507
     25          6           0       -3.187664   -0.535742   -0.938378
     26          1           0       -5.373953    0.323039    1.290579
     27          1           0       -6.802134   -0.079603   -0.513719
     28          1           0       -5.994908   -0.817965   -2.544914
     29          1           0        4.169086    1.712139   -0.810217
     30          1           0       -2.235031   -0.593291   -1.083801
     31          1           0       -3.675648   -1.094574   -2.831871
 ---------------------------------------------------------------------

 SCF Done:  E(RPBE1PBE) =  -3281.45600259     A.U. after   17 cycles

 The electronic state is 1-A.
 Alpha  occ. eigenvalues -- -483.06342 -62.49707 -56.28673 -56.28366 -56.28358
 Alpha  occ. eigenvalues --  -18.95740 -14.22141 -10.13229 -10.13118 -10.12500
 Alpha  occ. eigenvalues --  -10.12339 -10.12287 -10.12217 -10.12136 -10.11334
 Alpha  occ. eigenvalues --  -10.10929 -10.10633 -10.08836 -10.08435 -10.08102
 Alpha  occ. eigenvalues --  -10.07167 -10.05748  -8.64311  -6.45698  -6.44565
 Alpha  occ. eigenvalues --   -6.44533  -2.54273  -2.53944  -2.53919  -2.53008
 Alpha  occ. eigenvalues --   -2.53008  -0.80535  -0.79331  -0.77670  -0.74239
 Alpha  occ. eigenvalues --   -0.70265  -0.68044  -0.67200  -0.66242  -0.64005
 Alpha  occ. eigenvalues --   -0.58511  -0.56472  -0.54380  -0.52666  -0.50149
 Alpha  occ. eigenvalues --   -0.48498  -0.46020  -0.42047  -0.40426  -0.39911
 Alpha  occ. eigenvalues --   -0.37306  -0.36655  -0.35958  -0.35310  -0.34094
 Alpha  occ. eigenvalues --   -0.33855  -0.32561  -0.31148  -0.30642  -0.28901
 Alpha  occ. eigenvalues --   -0.27917  -0.27048  -0.26158  -0.26000  -0.24665
 Alpha  occ. eigenvalues --   -0.23600  -0.21348  -0.19455  -0.18312  -0.17531
 Alpha  occ. eigenvalues --   -0.17279  -0.16406  -0.14664  -0.11386  -0.10681
 Alpha  occ. eigenvalues --   -0.04164  -0.03430
 Alpha virt. eigenvalues --    0.09382   0.09916   0.11312   0.15409   0.17386
 Alpha virt. eigenvalues --    0.18018   0.19418   0.20116   0.21195   0.22737
 Alpha virt. eigenvalues --    0.23850   0.24905   0.25053   0.25745   0.27079

 Mulliken charges:
               1
     1  O   -0.431543
     2  N   -0.216771
     3  C    0.131415
     4  C    0.236377
     5  H   -0.071487
     6  H   -0.026157
     7  H   -0.060350
     8  H   -0.031818
     9  Br  -0.159229
    10  C    0.172395
    11  C    0.095980
    12  C   -0.060980
    13  C    0.061858
    14  C   -0.074167
    15  C    0.098744
    16  H   -0.128039
    17  H   -0.143233
    18  C   -0.005203
    19  H   -0.125542
    20  C   -0.028440
    21  C    0.038415
    22  C    0.078941
    23  C    0.066362
    24  C    0.061311
    25  C    0.064794
    26  H   -0.085497
    27  H   -0.101023
    28  H   -0.095732
    29  H   -0.120639
    30  H   -0.063123
    31  H   -0.077617
 Sum of Mulliken charges =  -1.00000

 Dipole moment (field-independent basis, Debye):
    X=             -2.9306    Y=             -6.8399    Z=              0.0817  Tot=              7.4417
 Quadrupole moment (field-independent basis, Debye-Ang):
   XX=           -151.9675   YY=           -142.2129   ZZ=           -118.2358
   XY=              4.8132   XZ=             -1.2790   YZ=             -1.1328

  Exact polarizability:     286.003      -4.107     149.008     -14.198      -4.466     135.821
 Approx polarizability:     386.768     -33.133     249.529     -32.881      -3.259     215.770

 Summary of Natural Population Analysis:

                                       Natural Population
                Natural  -----------------------------------------------
    Atom  No    Charge         Core      Valence    Rydberg      Total
 -----------------------------------------------------------------------
      O    1   -0.71175      1.99981     6.70442    0.00753     8.71175
      N    2   -0.49070      1.99937     5.47277    0.01856     7.49070
      C    3   -0.00678      1.99889     3.98527    0.02263     6.00678
      C    4   -0.56609      1.99913     4.55738    0.00957     6.56609
      H    5    0.17639      0.00000     0.81936    0.00424     0.82361
      H    6    0.18835      0.00000     0.80850    0.00315     0.81165
      H    7    0.18639      0.00000     0.81064    0.00297     0.81361
      H    8    0.18492      0.00000     0.81212    0.00296     0.81508
     Br    9   -0.04329     27.99921     7.02493    0.01915    35.04329
      C   10    0.39136      1.99880     3.57077    0.03907     5.60864
      C   11   -0.21402      1.99892     4.19796    0.01713     6.21402
      C   12   -0.17694      1.99864     4.15687    0.02143     6.17694
      C   13   -0.18898      1.99885     4.17272    0.01741     6.18898
      C   14   -0.19755      1.99888     4.17931    0.01936     6.19755
      C   15    0.10838      1.99903     3.86505    0.02754     5.89162
      H   16    0.18258      0.00000     0.81312    0.00430     0.81742
      H   17    0.11524      0.00000     0.87673    0.00803     0.88476
      C   18   -0.25041      1.99897     4.23216    0.01928     6.25041
      H   19    0.18202      0.00000     0.81240    0.00558     0.81798
      C   20   -0.00491      1.99892     3.98536    0.02062     6.00491
      C   21   -0.20249      1.99897     4.18828    0.01524     6.20249
      C   22   -0.18797      1.99907     4.17426    0.01464     6.18797
      C   23   -0.20456      1.99909     4.19104    0.01443     6.20456
      C   24   -0.18020      1.99909     4.16675    0.01435     6.18020
      C   25   -0.17633      1.99895     4.16166    0.01572     6.17633
      H   26    0.18462      0.00000     0.81203    0.00335     0.81538
      H   27    0.17070      0.00000     0.82599    0.00331     0.82930
      H   28    0.17210      0.00000     0.82474    0.00316     0.82790
      H   29    0.17884      0.00000     0.81739    0.00377     0.82116
      H   30    0.20051      0.00000     0.79588    0.00361     0.79949
      H   31    0.18057      0.00000     0.81633    0.00310     0.81943
 =======================================================================
   * Total *   -1.00000     61.98260    91.63219    0.38520   154.00000

 ******   21 imaginary frequencies (negative Signs) ******

                      1                      2                      3
                      A                      A                      A
 Frequencies --  -1403.9430             -1201.4226             -1168.1647
 Red. masses --      1.0086                 1.0744                 1.0653
 Frc consts  --      1.1713                 0.9137                 0.8565
 IR Inten    --      0.0089                54.8353                30.0087

                      4                      5                      6
                      A                      A                      A
 Frequencies --  -1120.5535             -1058.7174             -1044.2232
 Red. masses --      1.0478                 1.0417                 1.0482
 Frc consts  --      0.7751                 0.6879                 0.6734
 IR Inten    --     11.7354                25.4845                 6.1825

                      7                      8                      9
                      A                      A                      A
 Frequencies --  -1038.4687             -1025.6414              -983.3887
 Red. masses --      1.0368                 1.0422                 1.0192
 Frc consts  --      0.6588                 0.6460                 0.5807
 IR Inten    --      4.0102                11.7799                 5.6958

                     10                     11                     12
                      A                      A                      A
 Frequencies --   -939.2492              -809.0622              -746.5111
 Red. masses --      1.0239                 1.0123                 1.0299
 Frc consts  --      0.5322                 0.3904                 0.3382
 IR Inten    --      0.2393                 2.6006                 2.9740

                     13                     14                     15
                      A                      A                      A
 Frequencies --   -576.0253              -557.4284              -498.6282
 Red. masses --      1.2066                 1.1999                 1.3847
 Frc consts  --      0.2359                 0.2197                 0.2028
 IR Inten    --      0.5836                 4.2446                 1.5680

                     16                     17                     18
                      A                      A                      A
 Frequencies --   -497.3286              -436.6812              -387.3368
 Red. masses --      1.2728                 1.6430                 1.5231
 Frc consts  --      0.1855                 0.1846                 0.1346
 IR Inten    --      1.7624                 6.2675                19.0497

                     19                     20                     21
                      A                      A                      A
 Frequencies --   -286.9586              -274.6824              -191.6159
 Red. masses --      1.6452                 1.2831                 2.6164
 Frc consts  --      0.0798                 0.0570                 0.0566
 IR Inten    --      4.8248                 1.3703                 0.0961

                     22                     23                     24
                      A                      A                      A
 Frequencies --     85.2232               117.6680               145.8525
 Red. masses --      8.7085                11.0131                 9.5116
 Frc consts  --      0.0373                 0.0898                 0.1192
 IR Inten    --      2.5561                 1.3584                 0.2286

                     25                     26                     27
                      A                      A                      A
 Frequencies --    159.8673               184.5371               197.9741
 Red. masses --      1.6061                 2.9818                10.5464
 Frc consts  --      0.0242                 0.0598                 0.2435
 IR Inten    --      8.2486                 1.3629                 0.2154

                     28                     29                     30
                      A                      A                      A
 Frequencies --    232.0545               298.1650               334.7920
 Red. masses --      5.8118                 9.4733                10.3186
 Frc consts  --      0.1844                 0.4962                 0.6814
 IR Inten    --      1.7594                 2.1008                 0.2046

                     31                     32                     33
                      A                      A                      A
 Frequencies --    363.6753               370.2924               404.1058
 Red. masses --      1.4914                 2.5200                 5.4079
 Frc consts  --      0.1162                 0.2036                 0.5203
 IR Inten    --      7.5977                13.9572                 0.2446

                     34                     35                     36
                      A                      A                      A
 Frequencies --    436.7279               446.6803               490.3359
 Red. masses --      4.9220                 2.7392                 3.5127
 Frc consts  --      0.5531                 0.3220                 0.4976
 IR Inten    --      8.1904                 4.8127                 3.4970

                     37                     38                     39
                      A                      A                      A
 Frequencies --    498.8707               543.4081               577.6585
 Red. masses --      2.6258                11.4056                 1.5732
 Frc consts  --      0.3850                 1.9844                 0.3093
 IR Inten    --      4.6805                 0.2700                 1.4035

                     40                     41                     42
                      A                      A                      A
 Frequencies --    605.7020               621.0398               631.6079
 Red. masses --      4.9500                 4.0203                10.2127
 Frc consts  --      1.0700                 0.9136                 2.4004
 IR Inten    --      0.4092                11.2393                 3.5702

                     43                     44                     45
                      A                      A                      A
 Frequencies --    654.0179               661.4234               681.8807
 Red. masses --      6.8958                 4.2507                 3.0698
 Frc consts  --      1.7379                 1.0956                 0.8410
 IR Inten    --      1.8949                16.1255                79.8419

                     46                     47                     48
                      A                      A                      A
 Frequencies --    721.5391               761.0894               808.2547
 Red. masses --      3.4452                 4.7786                 5.0851
 Frc consts  --      1.0568                 1.6309                 1.9573
 IR Inten    --      4.6878                11.8936                 4.9895

                     49                     50                     51
                      A                      A                      A
 Frequencies --    822.8730               831.8170               837.4802
 Red. masses --      3.8060                 3.6015                 6.3715
 Frc consts  --      1.5184                 1.4682                 2.6330
 IR Inten    --     23.4014                16.3407                 0.8621

                     52                     53                     54
                      A                      A                      A
 Frequencies --    864.4203               905.6776               926.7093
 Red. masses --      2.3754                 1.9996                 3.1761
 Frc consts  --      1.0458                 0.9663                 1.6071
 IR Inten    --      1.7975                21.2195                 7.6662

                     55                     56                     57
                      A                      A                      A
 Frequencies --    943.5682              1001.8684              1034.2682
 Red. masses --      2.6740                 4.8818                 1.7637
 Frc consts  --      1.4027                 2.8871                 1.1116
 IR Inten    --     34.9916                14.9367                 3.7524

                     58                     59                     60
                      A                      A                      A
 Frequencies --   1047.5779              1070.2045              1134.3807
 Red. masses --      1.9061                 3.7059                 5.1586
 Frc consts  --      1.2324                 2.5008                 3.9111
 IR Inten    --     20.3800                 3.7466                14.0236

                     61                     62                     63
                      A                      A                      A
 Frequencies --   1253.9437              1291.1769              1309.0984
 Red. masses --      6.9226                 8.9281                 9.0074
 Frc consts  --      6.4132                 8.7696                 9.0948
 IR Inten    --      0.9071                36.1897                57.5683

                     64                     65                     66
                      A                      A                      A
 Frequencies --   1447.8770              1449.9687              1476.2660
 Red. masses --      7.4554                 9.6253                10.3055
 Frc consts  --      9.2084                11.9229                13.2327
 IR Inten    --      2.9378               110.3581               126.7798

                     67                     68                     69
                      A                      A                      A
 Frequencies --   1487.4671              1521.2762              1550.7909
 Red. masses --      8.4167                 8.7991                 9.6635
 Frc consts  --     10.9720                11.9979                13.6928
 IR Inten    --      1.8786                15.7381               185.9102

                     70                     71                     72
                      A                      A                      A
 Frequencies --   1634.9954              1667.9183              1721.4848
 Red. masses --     10.6731                11.2306                10.3848
 Frc consts  --     16.8103                18.4078                18.1323
 IR Inten    --    281.7406               265.6720                12.1286

                     73                     74                     75
                      A                      A                      A
 Frequencies --   1722.6435              1752.1003              4387.8904
 Red. masses --     10.7213                10.5564                 1.0898
 Frc consts  --     18.7451                19.0934                12.3626
 IR Inten    --     67.3580                11.3036                 5.8109

                     76                     77                     78
                      A                      A                      A
 Frequencies --   4491.7568              4519.1804              4531.0358
 Red. masses --      1.0372                 1.0895                 1.0876
 Frc consts  --     12.3297                13.1099                13.1556
 IR Inten    --     10.9581                 3.6318                20.6722

                     79                     80                     81
                      A                      A                      A
 Frequencies --   4575.0463              4608.4962              4620.6358
 Red. masses --      1.0902                 1.0894                 1.0859
 Frc consts  --     13.4448                13.6317                13.6595
 IR Inten    --      1.0691                 0.9699                27.1955

                     82                     83                     84
                      A                      A                      A
 Frequencies --   4633.3989              4664.2247              4688.5592
 Red. masses --      1.0890                 1.1037                 1.0902
 Frc consts  --     13.7751                14.1472                14.1200
 IR Inten    --      1.2811                 9.1955                 4.5358

                     85                     86                     87
                      A                      A                      A
 Frequencies --   4693.3026              4732.5135              4753.0989
 Red. masses --      1.0896                 1.1037                 1.0903
 Frc consts  --     14.1413                14.5641                14.5129
 IR Inten    --      3.6674                 6.6874                 9.7221

 - Thermochemistry -
 -------------------
 Temperature   298.150 Kelvin.  Pressure   1.00000 Atm.
 Atom     1 has atomic number  8 and mass  15.99491

 Molecular mass:   302.01805 amu.
 Principal axes and moments of inertia in atomic units:
                           1         2         3
     Eigenvalues --  2521.30293********************
           X            0.99976   0.02185  -0.00007
           Y           -0.02181   0.99758  -0.06606
           Z           -0.00137   0.06605   0.99782
 This molecule is an asymmetric top.
 Rotational symmetry number  1.
 Warning -- assumption of classical behavior for rotation
           may cause significant error
 Rotational temperatures (Kelvin)      0.03435     0.00577     0.00555
 Rotational constants (GHZ):           0.71580     0.12023     0.11569
   21 imaginary frequencies ignored.
 Zero-point vibrational energy     625894.8 (Joules/Mol)
                                  149.59244 (Kcal/Mol)
 Warning -- explicit consideration of  19 degrees of freedom as
           vibrations may cause significant error
 Vibrational temperatures:    122.62   169.30   209.85   230.01   265.51
          (Kelvin)            284.84   333.87   428.99   481.69   523.25
                              532.77   581.42   628.35   642.67   705.48
                              717.76   781.84   831.12   871.47   893.54
                              908.74   940.99   951.64   981.07  1038.13
                             1095.04  1162.90  1183.93  1196.80  1204.95
                             1243.71  1303.07  1333.33  1357.58  1441.47
                             1488.08  1507.23  1539.79  1632.12  1804.15
                             1857.72  1883.50  2083.17  2086.18  2124.02
                             2140.13  2188.78  2231.24  2352.39  2399.76
                             2476.83  2478.50  2520.88  6313.20  6462.64
                             6502.09  6519.15  6582.47  6630.60  6648.06
                             6666.43  6710.78  6745.79  6752.62  6809.03
                             6838.65

 Zero-point correction=                           0.238391 (Hartree/Particle)
 Thermal correction to Energy=                    0.250531
 Thermal correction to Enthalpy=                  0.251475
 Thermal correction to Gibbs Free Energy=         0.198860
 Sum of electronic and zero-point Energies=          -3281.217612
 Sum of electronic and thermal Energies=             -3281.205471
 Sum of electronic and thermal Enthalpies=           -3281.204527
 Sum of electronic and thermal Free Energies=        -3281.257142

                     E (Thermal)             CV                S
                      KCal/Mol        Cal/Mol-Kelvin    Cal/Mol-Kelvin
 Total                  157.211             48.777            110.738
 Electronic               0.000              0.000              0.000
 Translational            0.889              2.981             43.013
 Rotational               0.889              2.981             34.734
 Vibrational            155.433             42.815             32.991
 Vibration     1          0.601              1.959              3.767
 Vibration     2          0.608              1.935              3.138
 Vibration     3          0.617              1.907              2.726
 Vibration     4          0.622              1.892              2.551
 Vibration     5          0.631              1.861              2.282
 Vibration     6          0.637              1.843              2.152
 Vibration     7          0.653              1.792              1.863
 Vibration     8          0.691              1.677              1.427
 Vibration     9          0.716              1.606              1.237
 Vibration    10          0.737              1.547              1.106
 Vibration    11          0.742              1.533              1.079
 Vibration    12          0.769              1.461              0.948
 Vibration    13          0.797              1.390              0.837
 Vibration    14          0.806              1.368              0.806
 Vibration    15          0.846              1.271              0.683
 Vibration    16          0.854              1.253              0.661
 Vibration    17          0.899              1.154              0.558
 Vibration    18          0.934              1.080              0.490
 Vibration    19          0.964              1.020              0.440

 Normal termination of Gaussian 16 at Mon Mar  6 11:09:14 2023.
