 Gaussian 16, Revision C.01,
 Gaussian 16:  ES64L-G16RevC.01  3-Jul-2019

 ----------------------------------------------------------------------
 #p pop=(regular,nbo,savenbos) freq=noraman def2svp empiricaldispersion
 =gd3bj output=wfx pbe1pbe
 ----------------------------------------------------------------------

 ----------------------------------------
 TEFCEP_Complex_3_Ligand_1_NN_Cu_oriented
 ----------------------------------------
 Symbolic Z-matrix:
 Charge =  0 Multiplicity = 1

                         Standard orientation:
 ---------------------------------------------------------------------
 Center     Atomic      Atomic             Coordinates (Angstroms)
 Number     Number       Type             X           Y           Z
 ---------------------------------------------------------------------
      1          6           0       -2.891343   -0.333073    0.130062
      2          6           0       -1.467600   -0.819354    0.281212
      3          1           0       -1.345267   -1.182640    1.193610
      4          1           0       -1.306893   -1.553966   -0.362612
      5          6           0        0.737236   -0.131033    0.010069
      6          6           0        1.264197   -1.540590    0.186732
      7          1           0        0.873842   -2.157296   -0.481426
      8          1           0        1.076852   -1.883533    1.096522
      9          6           0        2.777231   -1.350800   -0.040968
     10          1           0        3.349514   -2.084315    0.326746
     11          6           0        3.039000    0.035377    0.566244
     12          6           0        2.770208    0.090129    2.073717
     13          6           0        4.454611    0.579488    0.316987
     14          1           0        5.105497    0.032572    0.804470
     15          1           0        4.507840    1.507144    0.630314
     16          1           0        4.652605    0.547547   -0.641642
     17          6           0        2.940693   -1.102876   -1.550218
     18          1           0        2.441433   -1.773174   -2.081006
     19          1           0        3.893890   -1.122345   -1.815989
     20          6           0        2.337986    0.314329   -1.725556
     21          1           0        1.542323    0.291083   -2.314557
     22          1           0        3.003845    0.937678   -2.109882
     23          6           0        1.947607    0.737188   -0.279958
     24          6           0        1.776527    2.232199   -0.108497
     25          1           0        1.136220    2.566165   -0.771133
     26          1           0        2.640791    2.676711   -0.235512
     27          1           0        1.441205    2.421793    0.792827
     28          7           0       -3.090948    0.973072   -0.019678
     29          7           0       -0.475539    0.249212    0.050426
     30          6           0       -4.351808    1.423606   -0.149369
     31          1           0       -4.495165    2.356948   -0.261183
     32          6           0       -5.439590    0.581437   -0.127402
     33          1           0       -6.319517    0.927994   -0.208912
     34          6           0       -5.230539   -0.778047    0.015413
     35          1           0       -5.961543   -1.383802   -0.003477
     36          6           0       -3.937755   -1.241695    0.185535
     37          1           0       -3.770481   -2.164826    0.337862
     38          1           0        3.322495   -0.578696    2.528858
     39          1           0        1.823265   -0.097492    2.243986
     40          1           0        2.992687    0.982753    2.412880
 ---------------------------------------------------------------------

 SCF Done:  E(RPBE1PBE) =  -730.836261432     A.U. after   14 cycles

 The electronic state is 1-A.
 Alpha  occ. eigenvalues --  -14.36944 -14.36037 -10.26295 -10.25848 -10.24520
 Alpha  occ. eigenvalues --  -10.23323 -10.23268 -10.23197 -10.22844 -10.22284
 Alpha  occ. eigenvalues --  -10.21954 -10.21891 -10.20810 -10.20155 -10.20116
 Alpha  occ. eigenvalues --  -10.18489 -10.18289 -10.17425  -0.95774  -0.93592
 Alpha  occ. eigenvalues --   -0.89218  -0.82222  -0.80208  -0.79310  -0.78445
 Alpha  occ. eigenvalues --   -0.75932  -0.72184  -0.71758  -0.68671  -0.66762
 Alpha  occ. eigenvalues --   -0.66067  -0.62938  -0.60013  -0.55893  -0.54884
 Alpha  occ. eigenvalues --   -0.52090  -0.50931  -0.50799  -0.50274  -0.49492
 Alpha  occ. eigenvalues --   -0.48164  -0.47439  -0.46324  -0.44707  -0.44282
 Alpha  occ. eigenvalues --   -0.43908  -0.42703  -0.41954  -0.41848  -0.41516
 Alpha  occ. eigenvalues --   -0.41133  -0.40162  -0.39740  -0.38818  -0.37226
 Alpha  occ. eigenvalues --   -0.35506  -0.33982  -0.33170  -0.32866  -0.32190
 Alpha  occ. eigenvalues --   -0.30571  -0.29319  -0.28096  -0.26189  -0.25416
 Alpha  occ. eigenvalues --   -0.23159
 Alpha virt. eigenvalues --   -0.01611  -0.00124   0.02521   0.06915   0.08905
 Alpha virt. eigenvalues --    0.10296   0.10636   0.11265   0.11635   0.12804
 Alpha virt. eigenvalues --    0.14051   0.14159   0.14938   0.15149   0.15730

 Mulliken charges:
               1
     1  C   -0.094401
     2  C    0.282113
     3  H   -0.002181
     4  H   -0.010375
     5  C   -0.149206
     6  C    0.304377
     7  H   -0.016989
     8  H   -0.008647
     9  C   -0.150713
    10  H   -0.043147
    11  C   -0.467947
    12  C    0.279760
    13  C    0.279111
    14  H   -0.019163
    15  H   -0.014969
    16  H   -0.035239
    17  C    0.199445
    18  H   -0.031456
    19  H   -0.022381
    20  C    0.212725
    21  H   -0.018119
    22  H   -0.021177
    23  C   -0.391200
    24  C    0.329143
    25  H   -0.006417
    26  H   -0.041292
    27  H   -0.022453
    28  N   -0.150034
    29  N   -0.215409
    30  C    0.176426
    31  H   -0.058543
    32  C    0.012291
    33  H   -0.070016
    34  C    0.141514
    35  H   -0.071148
    36  C    0.064784
    37  H   -0.088845
    38  H   -0.021793
    39  H   -0.020626
    40  H   -0.017805
 Sum of Mulliken charges =  -0.00000

 Dipole moment (field-independent basis, Debye):
    X=              0.2260    Y=             -2.5749    Z=              0.1704  Tot=              2.5904
 Quadrupole moment (field-independent basis, Debye-Ang):
   XX=            -91.6743   YY=           -104.1978   ZZ=           -107.8492
   XY=              3.5327   XZ=              0.3531   YZ=             -1.0335

  Exact polarizability:     210.862      -2.750     150.526       1.088      -3.046     117.053
 Approx polarizability:     264.120      -5.406     237.344       1.732      -7.514     171.015

 Summary of Natural Population Analysis:

                                       Natural Population
                Natural  -----------------------------------------------
    Atom  No    Charge         Core      Valence    Rydberg      Total
 -----------------------------------------------------------------------
      C    1    0.24378      1.99905     3.73075    0.02642     5.75622
      C    2   -0.21819      1.99897     4.19884    0.02038     6.21819
      H    3    0.19927      0.00000     0.79644    0.00429     0.80073
      H    4    0.18989      0.00000     0.80552    0.00460     0.81011
      C    5    0.32703      1.99902     3.63530    0.03866     5.67297
      C    6   -0.46322      1.99908     4.44904    0.01510     6.46322
      H    7    0.21481      0.00000     0.78213    0.00305     0.78519
      H    8    0.21925      0.00000     0.77784    0.00290     0.78075
      C    9   -0.19773      1.99900     4.17669    0.02205     6.19773
      H   10    0.20514      0.00000     0.79138    0.00348     0.79486
      C   11   -0.03673      1.99894     4.01802    0.01978     6.03673
      C   12   -0.56570      1.99917     4.55312    0.01341     6.56570
      C   13   -0.56485      1.99918     4.55238    0.01329     6.56485
      H   14    0.19845      0.00000     0.79882    0.00273     0.80155
      H   15    0.19854      0.00000     0.79894    0.00252     0.80146
      H   16    0.19282      0.00000     0.80483    0.00235     0.80718
      C   17   -0.38420      1.99916     4.37015    0.01488     6.38420
      H   18    0.19672      0.00000     0.80015    0.00313     0.80328
      H   19    0.19785      0.00000     0.79915    0.00300     0.80215
      C   20   -0.37306      1.99911     4.35742    0.01653     6.37306
      H   21    0.20677      0.00000     0.79002    0.00322     0.79323
      H   22    0.20185      0.00000     0.79516    0.00299     0.79815
      C   23   -0.08208      1.99883     4.06055    0.02270     6.08208
      C   24   -0.56034      1.99919     4.54663    0.01451     6.56034
      H   25    0.21012      0.00000     0.78675    0.00313     0.78988
      H   26    0.19127      0.00000     0.80627    0.00247     0.80873
      H   27    0.20255      0.00000     0.79462    0.00283     0.79745
      N   28   -0.47397      1.99927     5.45797    0.01673     7.47397
      N   29   -0.48062      1.99914     5.46252    0.01896     7.48062
      C   30    0.10707      1.99911     3.87304    0.02077     5.89293
      H   31    0.15877      0.00000     0.83826    0.00296     0.84123
      C   32   -0.22934      1.99911     4.21736    0.01286     6.22934
      H   33    0.18035      0.00000     0.81640    0.00325     0.81965
      C   34   -0.13675      1.99912     4.12379    0.01384     6.13675
      H   35    0.17844      0.00000     0.81868    0.00288     0.82156
      C   36   -0.22756      1.99900     4.21468    0.01388     6.22756
      H   37    0.18231      0.00000     0.81462    0.00308     0.81769
      H   38    0.19598      0.00000     0.80127    0.00275     0.80402
      H   39    0.19578      0.00000     0.80191    0.00231     0.80422
      H   40    0.19954      0.00000     0.79795    0.00251     0.80046
 =======================================================================
   * Total *    0.00000     35.98345    95.61536    0.40119   132.00000

 ******   25 imaginary frequencies (negative Signs) ******

                      1                      2                      3
                      A                      A                      A
 Frequencies --  -1263.6783             -1233.6873             -1229.3289
 Red. masses --      1.0797                 1.0088                 1.0089
 Frc consts  --      1.0159                 0.9046                 0.8983
 IR Inten    --     51.0299                 0.0962                 0.0068

                      4                      5                      6
                      A                      A                      A
 Frequencies --  -1220.8893             -1130.3009             -1084.8916
 Red. masses --      1.0103                 1.0445                 1.0159
 Frc consts  --      0.8872                 0.7862                 0.7045
 IR Inten    --      0.0115                 0.0531                 0.0812

                      7                      8                      9
                      A                      A                      A
 Frequencies --   -986.2892              -969.5746              -912.4024
 Red. masses --      1.0314                 1.0400                 1.0421
 Frc consts  --      0.5912                 0.5760                 0.5112
 IR Inten    --      0.1593                 4.5858                 3.2400

                     10                     11                     12
                      A                      A                      A
 Frequencies --   -873.4806              -851.0513              -840.7925
 Red. masses --      1.0574                 1.0424                 1.0938
 Frc consts  --      0.4753                 0.4448                 0.4556
 IR Inten    --      4.5092                 7.0800                 6.5318

                     13                     14                     15
                      A                      A                      A
 Frequencies --   -806.0213              -792.5783              -786.1931
 Red. masses --      1.0439                 1.0370                 1.0602
 Frc consts  --      0.3996                 0.3838                 0.3861
 IR Inten    --      3.3766                 2.4463                 2.7610

                     16                     17                     18
                      A                      A                      A
 Frequencies --   -773.7084              -760.2742              -684.8255
 Red. masses --      1.0502                 1.0546                 1.1240
 Frc consts  --      0.3704                 0.3592                 0.3106
 IR Inten    --      1.4469                 5.5558                 0.1998

                     19                     20                     21
                      A                      A                      A
 Frequencies --   -608.0911              -530.2241              -364.9011
 Red. masses --      1.2362                 1.2882                 1.5528
 Frc consts  --      0.2693                 0.2134                 0.1218
 IR Inten    --      3.8210                 8.4573                 0.6813

                     22                     23                     24
                      A                      A                      A
 Frequencies --   -340.4853              -278.1937              -258.7478
 Red. masses --      1.4310                 1.1549                 2.3082
 Frc consts  --      0.0977                 0.0527                 0.0910
 IR Inten    --      0.7652                11.4644                 1.3775

                     25                     26                     27
                      A                      A                      A
 Frequencies --   -224.1089                91.7248               139.9569
 Red. masses --      1.9556                 2.5181                 4.8098
 Frc consts  --      0.0579                 0.0125                 0.0555
 IR Inten    --      0.7875                 0.4238                 1.4092

                     28                     29                     30
                      A                      A                      A
 Frequencies --    168.0218               198.4842               250.6369
 Red. masses --      2.6696                 5.2554                 2.2326
 Frc consts  --      0.0444                 0.1220                 0.0826
 IR Inten    --      2.4627                 0.0701                 4.2647

                     31                     32                     33
                      A                      A                      A
 Frequencies --    278.5701               344.8464               380.4777
 Red. masses --      2.7240                 1.3792                 2.3054
 Frc consts  --      0.1245                 0.0966                 0.1966
 IR Inten    --      0.2497                 3.4535                 3.4259

                     34                     35                     36
                      A                      A                      A
 Frequencies --    428.8025               434.8226               442.8887
 Red. masses --      4.2919                 1.9341                 2.6779
 Frc consts  --      0.4650                 0.2155                 0.3095
 IR Inten    --      0.4578                 0.6035                 0.2835

                     37                     38                     39
                      A                      A                      A
 Frequencies --    455.2960               464.0921               499.6892
 Red. masses --      3.0155                 3.2090                 1.7802
 Frc consts  --      0.3683                 0.4072                 0.2619
 IR Inten    --      1.2129                 1.9397                 3.0761

                     40                     41                     42
                      A                      A                      A
 Frequencies --    534.1237               548.2785               567.5511
 Red. masses --     11.2788                 3.2814                 2.0127
 Frc consts  --      1.8958                 0.5812                 0.3820
 IR Inten    --      1.1229                 1.6317                19.4391

                     43                     44                     45
                      A                      A                      A
 Frequencies --    600.4759               620.8543               660.4685
 Red. masses --      2.6509                 2.9341                 3.1797
 Frc consts  --      0.5632                 0.6664                 0.8172
 IR Inten    --      0.8840                 1.9634                 2.2722

                     46                     47                     48
                      A                      A                      A
 Frequencies --    669.5843               710.9034               715.0672
 Red. masses --      3.3313                 1.6868                 1.7910
 Frc consts  --      0.8800                 0.5023                 0.5396
 IR Inten    --      1.0150                16.6701                 6.4451

                     49                     50                     51
                      A                      A                      A
 Frequencies --    721.0096               724.5566               737.9233
 Red. masses --      3.3906                 4.0601                 2.0340
 Frc consts  --      1.0385                 1.2558                 0.6526
 IR Inten    --      1.4114                 1.8432                12.7494

                     52                     53                     54
                      A                      A                      A
 Frequencies --    743.9101               755.1474               757.2903
 Red. masses --      1.6244                 1.9965                 1.6201
 Frc consts  --      0.5297                 0.6708                 0.5474
 IR Inten    --      4.4997                 8.8098                12.1470

                     55                     56                     57
                      A                      A                      A
 Frequencies --    769.0135               805.3856               832.7010
 Red. masses --      2.6796                 2.1854                 3.0026
 Frc consts  --      0.9336                 0.8352                 1.2267
 IR Inten    --     11.2745                21.6753                 3.8589

                     58                     59                     60
                      A                      A                      A
 Frequencies --    867.1906               893.2130               897.4632
 Red. masses --      3.3264                 3.1797                 4.0655
 Frc consts  --      1.4739                 1.4947                 1.9293
 IR Inten    --      5.1621                 1.0119                 4.9578

                     61                     62                     63
                      A                      A                      A
 Frequencies --    907.8727               929.8936               957.2929
 Red. masses --      3.0339                 3.3255                 4.4681
 Frc consts  --      1.4733                 1.6943                 2.4125
 IR Inten    --      2.4660                 1.7064                 3.9208

                     64                     65                     66
                      A                      A                      A
 Frequencies --    984.3325              1024.8316              1041.7094
 Red. masses --      3.4719                 2.5911                 5.1436
 Frc consts  --      1.9820                 1.6034                 3.2886
 IR Inten    --      1.3281                32.4519                 1.6607

                     67                     68                     69
                      A                      A                      A
 Frequencies --   1042.6653              1048.5233              1057.9519
 Red. masses --      3.2203                 1.4804                 1.3704
 Frc consts  --      2.0627                 0.9589                 0.9037
 IR Inten    --     11.1663                23.9500                 2.0611

                     70                     71                     72
                      A                      A                      A
 Frequencies --   1078.4539              1080.9284              1094.0577
 Red. masses --      1.6090                 1.7293                 1.4652
 Frc consts  --      1.1026                 1.1905                 1.0333
 IR Inten    --      1.0461                 2.6188                27.9649

                     73                     74                     75
                      A                      A                      A
 Frequencies --   1095.7593              1106.1550              1116.0257
 Red. masses --      1.3079                 1.3784                 1.4624
 Frc consts  --      0.9252                 0.9937                 1.0731
 IR Inten    --      2.0178                 0.6607                 7.5809

                     76                     77                     78
                      A                      A                      A
 Frequencies --   1117.7161              1143.2183              1160.7987
 Red. masses --      1.3843                 1.6802                 1.1599
 Frc consts  --      1.0189                 1.2938                 0.9209
 IR Inten    --      1.3355                 2.9839                13.5360

                     79                     80                     81
                      A                      A                      A
 Frequencies --   1162.7525              1175.3102              1209.2516
 Red. masses --      2.0517                 1.5039                 2.7131
 Frc consts  --      1.6344                 1.2240                 2.3375
 IR Inten    --      4.1105                 5.5425                 2.3014

                     82                     83                     84
                      A                      A                      A
 Frequencies --   1238.2605              1255.7207              1283.8599
 Red. masses --      5.6407                 3.6659                 4.0954
 Frc consts  --      5.0957                 3.4058                 3.9773
 IR Inten    --      0.1658                 2.6987                 4.7480

                     85                     86                     87
                      A                      A                      A
 Frequencies --   1319.0889              1344.2826              1370.7367
 Red. masses --      4.1960                 9.0303                 7.4282
 Frc consts  --      4.3016                 9.6146                 8.2233
 IR Inten    --      1.5762                 2.8081                 3.4742

                     88                     89                     90
                      A                      A                      A
 Frequencies --   1415.0772              1445.2375              1648.1000
 Red. masses --      8.2623                 9.1446                11.0152
 Frc consts  --      9.7479                11.2537                17.6282
 IR Inten    --      4.1126                23.8482                87.2683

                     91                     92                     93
                      A                      A                      A
 Frequencies --   1672.6338              1792.4706              4130.6876
 Red. masses --     10.4692                12.4457                 1.0885
 Frc consts  --     17.2570                23.5598                10.9427
 IR Inten    --     16.2319               180.4280                19.1314

                     94                     95                     96
                      A                      A                      A
 Frequencies --   4182.0691              4183.1697              4185.3973
 Red. masses --      1.0590                 1.0587                 1.0595
 Frc consts  --     10.9122                10.9152                10.9348
 IR Inten    --      8.5997                15.0882                 3.5966

                     97                     98                     99
                      A                      A                      A
 Frequencies --   4190.0844              4233.6518              4236.5036
 Red. masses --      1.0601                 1.0321                 1.0324
 Frc consts  --     10.9662                10.8997                10.9170
 IR Inten    --     15.9900                 9.1424                 4.3871

                    100                    101                    102
                      A                      A                      A
 Frequencies --   4237.5075              4296.3720              4298.8177
 Red. masses --      1.0323                 1.1084                 1.1119
 Frc consts  --     10.9212                12.0546                12.1062
 IR Inten    --     16.4017                 3.9974                 0.4054

                    103                    104                    105
                      A                      A                      A
 Frequencies --   4303.3486              4308.1167              4422.7734
 Red. masses --      1.1096                 1.1098                 1.1068
 Frc consts  --     12.1067                12.1358                12.7564
 IR Inten    --      1.0954                14.7122                 4.9532

                    106                    107                    108
                      A                      A                      A
 Frequencies --   4423.9004              4425.7770              4428.5412
 Red. masses --      1.1067                 1.1065                 1.1067
 Frc consts  --     12.7608                12.7698                12.7877
 IR Inten    --      4.7215                 4.1430                 6.7592

                    109                    110                    111
                      A                      A                      A
 Frequencies --   4431.3183              4434.3167              4760.6351
 Red. masses --      1.1067                 1.1063                 1.0885
 Frc consts  --     12.8036                12.8162                14.5353
 IR Inten    --      1.4771                 5.1020                 2.3280

                    112                    113                    114
                      A                      A                      A
 Frequencies --   4762.5604              4776.7304              4787.1913
 Red. masses --      1.0892                 1.0897                 1.0929
 Frc consts  --     14.5561                14.6487                14.7565
 IR Inten    --      1.0310                 0.9050                 0.7643

 - Thermochemistry -
 -------------------
 Temperature   298.150 Kelvin.  Pressure   1.00000 Atm.
 Atom     1 has atomic number  6 and mass  12.00000

 Molecular mass:   242.17830 amu.
 Principal axes and moments of inertia in atomic units:
                           1         2         3
     Eigenvalues --  1567.682959280.824249663.81118
           X            0.99999   0.00507   0.00144
           Y           -0.00506   0.99998  -0.00350
           Z           -0.00145   0.00349   0.99999
 This molecule is an asymmetric top.
 Rotational symmetry number  1.
 Warning -- assumption of classical behavior for rotation
           may cause significant error
 Rotational temperatures (Kelvin)      0.05525     0.00933     0.00896
 Rotational constants (GHZ):           1.15122     0.19446     0.18675
   25 imaginary frequencies ignored.
 Zero-point vibrational energy     923940.9 (Joules/Mol)
                                  220.82718 (Kcal/Mol)
 Warning -- explicit consideration of  18 degrees of freedom as
           vibrations may cause significant error
 Vibrational temperatures:    131.97   201.37   241.75   285.57   360.61
          (Kelvin)            400.80   496.16   547.42   616.95   625.61
                              637.22   655.07   667.73   718.94   768.48
                              788.85   816.58   863.95   893.27   950.27
                              963.38  1022.83  1028.82  1037.37  1042.48
                             1061.71  1070.32  1086.49  1089.57  1106.44
                             1158.77  1198.07  1247.69  1285.13  1291.25
                             1306.23  1337.91  1377.33  1416.23  1474.50
                             1498.79  1500.16  1508.59  1522.16  1551.65
                             1555.21  1574.10  1576.55  1591.51  1605.71
                             1608.14  1644.84  1670.13  1672.94  1691.01
                             1739.84  1781.58  1806.70  1847.19  1897.87
                             1934.12  1972.18  2035.98  2079.37  2371.25
                             2406.55  2578.97  5943.14  6017.06  6018.65
                             6021.85  6028.60  6091.28  6095.38  6096.83
                             6181.52  6185.04  6191.56  6198.42  6363.38
                             6365.01  6367.71  6371.68  6375.68  6379.99
                             6849.49  6852.26  6872.65  6887.70

 Zero-point correction=                           0.351911 (Hartree/Particle)
 Thermal correction to Energy=                    0.363561
 Thermal correction to Enthalpy=                  0.364505
 Thermal correction to Gibbs Free Energy=         0.314580
 Sum of electronic and zero-point Energies=           -730.484351
 Sum of electronic and thermal Energies=              -730.472700
 Sum of electronic and thermal Enthalpies=            -730.471756
 Sum of electronic and thermal Free Energies=         -730.521681

                     E (Thermal)             CV                S
                      KCal/Mol        Cal/Mol-Kelvin    Cal/Mol-Kelvin
 Total                  228.138             52.835            105.076
 Electronic               0.000              0.000              0.000
 Translational            0.889              2.981             42.355
 Rotational               0.889              2.981             33.308
 Vibrational            226.361             46.873             29.413
 Vibration     1          0.602              1.955              3.623
 Vibration     2          0.615              1.913              2.804
 Vibration     3          0.625              1.882              2.457
 Vibration     4          0.637              1.842              2.147
 Vibration     5          0.663              1.762              1.726
 Vibration     6          0.679              1.713              1.542
 Vibration     7          0.723              1.586              1.190
 Vibration     8          0.750              1.512              1.037
 Vibration     9          0.790              1.408              0.863
 Vibration    10          0.795              1.394              0.843
 Vibration    11          0.803              1.377              0.818
 Vibration    12          0.814              1.349              0.780
 Vibration    13          0.822              1.330              0.754
 Vibration    14          0.855              1.251              0.659
 Vibration    15          0.889              1.175              0.578
 Vibration    16          0.904              1.143              0.548
 Vibration    17          0.924              1.101              0.509
 Vibration    18          0.959              1.031              0.449

 1\1\GINC-JST375\Freq\RPBE1PBE\def2SVP\C16H22N2\LAPLAZA\04-Mar-2023\0\\
 #p pop=(regular,nbo,savenbos) freq=noraman def2svp empiricaldispersion
 =gd3bj output=wfx pbe1pbe\\TEFCEP_Complex_3_Ligand_1_NN_Cu_oriented\\0
 ,1\C,2.44851248,1.4191321,-0.03724903\C,2.87303015,-0.02834131,-0.1419
 634\H,3.30584856,-0.17555614,-1.01969211\H,3.5411831,-0.22099279,0.562
 62731\C,2.05321053,-2.19370935,0.0763995\C,3.44412935,-2.79216758,0.02
 216024\H,4.02084052,-2.42835968,0.73922886\H,3.87219083,-2.62906161,-0
 .85567035\C,3.15917666,-4.29201313,0.23757121\H,3.89130479,-4.90316461

 Normal termination of Gaussian 16 at Sat Mar  4 12:58:26 2023.
