 Gaussian 16, Revision C.01,
 Gaussian 16:  ES64L-G16RevC.01  3-Jul-2019

 ----------------------------------------------------------------------
 #p pop=(regular,nbo,savenbos) freq=noraman def2svp empiricaldispersion
 =gd3bj output=wfx pbe1pbe
 ----------------------------------------------------------------------

 ----------------------------------------
 TEHYUB_Complex_3_Ligand_1_ON_Cu_oriented
 ----------------------------------------
 Symbolic Z-matrix:
 Charge = -1 Multiplicity = 1

                         Standard orientation:
 ---------------------------------------------------------------------
 Center     Atomic      Atomic             Coordinates (Angstroms)
 Number     Number       Type             X           Y           Z
 ---------------------------------------------------------------------
      1          8           0       -3.423064   -0.696915    2.112133
      2          7           0       -0.978699   -0.213198    0.856863
      3          6           0       -3.141114   -0.379264   -0.242090
      4          6           0       -3.947786   -0.622858    0.906001
      5          6           0       -5.310051   -0.781829    0.707730
      6          6           0       -5.882011   -0.629807   -0.511478
      7          6           0       -5.103182   -0.320823   -1.625864
      8          6           0       -3.728629   -0.257541   -1.512111
      9          6           0       -1.703416   -0.220603   -0.197044
     10          6           0        0.516018   -0.136496    0.652783
     11          6           0        1.010101   -1.116184   -0.362934
     12          1           0       -5.868705   -0.985137    1.456237
     13          1           0       -6.828244   -0.734852   -0.613035
     14          1           0       -5.520430   -0.156446   -2.470235
     15          1           0       -3.174686   -0.138408   -2.279509
     16          1           0       -1.251734   -0.114503   -1.028492
     17          1           0        0.918344   -0.385185    1.480006
     18          1           0        0.540097   -1.936524   -0.239956
     19          1           0        0.815397   -0.772019   -1.228875
     20          6           0        2.515651   -1.408855   -0.283016
     21          6           0        2.959861   -2.657412    0.125006
     22          6           0        4.309416   -2.932799    0.178265
     23          6           0        5.228849   -2.009965   -0.193933
     24          1           0        2.307805   -3.320792    0.384204
     25          1           0        4.594886   -3.814592    0.464198
     26          1           0        6.162719   -2.194569   -0.159376
     27          6           0        0.950780    1.328870    0.378719
     28          6           0        0.713994    1.914692   -0.827972
     29          6           0        1.145690    3.196412   -1.103725
     30          6           0        1.784243    3.879057   -0.112896
     31          6           0        2.030989    3.345071    1.093808
     32          6           0        1.613516    2.032124    1.346301
     33          1           0        0.251009    1.411747   -1.536020
     34          1           0        0.976265    3.595379   -1.960970
     35          1           0        2.099805    4.799854   -0.299657
     36          6           0        4.801692   -0.758439   -0.588873
     37          6           0        3.456848   -0.458675   -0.669312
     38          1           0        5.446738   -0.081966   -0.863186
     39          1           0        3.159657    0.411835   -0.943179
     40          1           0        2.501360    3.819477    1.786365
     41          1           0        1.776353    1.636336    2.212194
 ---------------------------------------------------------------------

 SCF Done:  E(RPBE1PBE) =  -939.046043310     A.U. after   19 cycles

 The electronic state is 1-A.
 Alpha  occ. eigenvalues --  -18.94654 -14.21662 -10.15194 -10.14056 -10.13889
 Alpha  occ. eigenvalues --  -10.13616 -10.13503 -10.13447 -10.13267 -10.12981
 Alpha  occ. eigenvalues --  -10.12904 -10.12851 -10.12726 -10.12488 -10.12441
 Alpha  occ. eigenvalues --  -10.10350 -10.10162 -10.09406 -10.06958 -10.06454
 Alpha  occ. eigenvalues --  -10.05695 -10.05098 -10.03733  -0.81092  -0.80068
 Alpha  occ. eigenvalues --   -0.78777  -0.77489  -0.72143  -0.70292  -0.69334
 Alpha  occ. eigenvalues --   -0.68957  -0.68472  -0.65206  -0.62311  -0.58524
 Alpha  occ. eigenvalues --   -0.56871  -0.55861  -0.55147  -0.53382  -0.52059
 Alpha  occ. eigenvalues --   -0.49145  -0.47585  -0.47193  -0.46190  -0.42177
 Alpha  occ. eigenvalues --   -0.41254  -0.40949  -0.39962  -0.39043  -0.37962
 Alpha  occ. eigenvalues --   -0.36863  -0.36580  -0.36062  -0.35683  -0.34349
 Alpha  occ. eigenvalues --   -0.33180  -0.31469  -0.30979  -0.30113  -0.29903
 Alpha  occ. eigenvalues --   -0.29453  -0.28775  -0.27833  -0.27246  -0.26084
 Alpha  occ. eigenvalues --   -0.25402  -0.24312  -0.23621  -0.21447  -0.18902
 Alpha  occ. eigenvalues --   -0.18673  -0.18225  -0.17802  -0.17504  -0.16980
 Alpha  occ. eigenvalues --   -0.14775  -0.10354  -0.09953  -0.03196  -0.02258
 Alpha virt. eigenvalues --    0.07693   0.08382   0.08822   0.10034   0.12658
 Alpha virt. eigenvalues --    0.17069   0.17533   0.18668   0.19586   0.20015
 Alpha virt. eigenvalues --    0.21003   0.21290   0.21693   0.23020   0.23160

 Mulliken charges:
               1
     1  O   -0.438533
     2  N   -0.195165
     3  C   -0.085845
     4  C    0.181545
     5  C   -0.020411
     6  C    0.087651
     7  C    0.009887
     8  C    0.053411
     9  C    0.113842
    10  C    0.209808
    11  C    0.290299
    12  H   -0.140831
    13  H   -0.119609
    14  H   -0.129631
    15  H   -0.136245
    16  H   -0.144917
    17  H   -0.095062
    18  H   -0.052246
    19  H   -0.042665
    20  C   -0.127665
    21  C    0.052802
    22  C    0.068045
    23  C    0.072927
    24  H   -0.081774
    25  H   -0.076575
    26  H   -0.093315
    27  C   -0.022146
    28  C    0.035395
    29  C    0.073070
    30  C    0.051916
    31  C    0.069086
    32  C    0.045631
    33  H   -0.068390
    34  H   -0.089875
    35  H   -0.066335
    36  C    0.057817
    37  C    0.083924
    38  H   -0.072893
    39  H   -0.084600
    40  H   -0.087489
    41  H   -0.084836
 Sum of Mulliken charges =  -1.00000

 Dipole moment (field-independent basis, Debye):
    X=             13.2949    Y=              1.9723    Z=             -5.0244  Tot=             14.3489
 Quadrupole moment (field-independent basis, Debye-Ang):
   XX=           -201.0013   YY=           -138.7376   ZZ=           -148.7825
   XY=             -5.8467   XZ=             14.9969   YZ=              0.3717

  Exact polarizability:     331.978      21.291     196.537      17.293     -16.159     179.601
 Approx polarizability:     426.942      34.119     291.344      40.963     -38.668     340.126

 Summary of Natural Population Analysis:

                                       Natural Population
                Natural  -----------------------------------------------
    Atom  No    Charge         Core      Valence    Rydberg      Total
 -----------------------------------------------------------------------
      O    1   -0.72038      1.99981     6.71311    0.00747     8.72038
      N    2   -0.47999      1.99937     5.46153    0.01910     7.47999
      C    3   -0.19999      1.99892     4.18150    0.01958     6.19999
      C    4    0.39245      1.99879     3.56974    0.03901     5.60755
      C    5   -0.27885      1.99896     4.26022    0.01967     6.27885
      C    6   -0.19074      1.99911     4.17726    0.01437     6.19074
      C    7   -0.30382      1.99911     4.28762    0.01708     6.30382
      C    8   -0.16983      1.99907     4.15605    0.01471     6.16983
      C    9    0.12137      1.99907     3.85113    0.02843     5.87863
      C   10    0.00418      1.99883     3.97285    0.02414     5.99582
      C   11   -0.38907      1.99895     4.37246    0.01766     6.38907
      H   12    0.17326      0.00000     0.82096    0.00579     0.82674
      H   13    0.16039      0.00000     0.83595    0.00366     0.83961
      H   14    0.16061      0.00000     0.83599    0.00340     0.83939
      H   15    0.15979      0.00000     0.83622    0.00399     0.84021
      H   16    0.10533      0.00000     0.88653    0.00814     0.89467
      H   17    0.17032      0.00000     0.82414    0.00554     0.82968
      H   18    0.20287      0.00000     0.79183    0.00530     0.79713
      H   19    0.18930      0.00000     0.80711    0.00360     0.81070
      C   20    0.00300      1.99901     3.98011    0.01788     5.99700
      C   21   -0.19627      1.99897     4.18249    0.01481     6.19627
      C   22   -0.18695      1.99908     4.17344    0.01444     6.18695
      C   23   -0.20812      1.99907     4.19458    0.01446     6.20812
      H   24    0.18736      0.00000     0.80966    0.00298     0.81264
      H   25    0.18025      0.00000     0.81652    0.00323     0.81975
      H   26    0.17409      0.00000     0.82275    0.00316     0.82591
      C   27   -0.02955      1.99892     4.00837    0.02226     6.02955
      C   28   -0.19546      1.99893     4.18195    0.01458     6.19546
      C   29   -0.18072      1.99906     4.16683    0.01482     6.18072
      C   30   -0.22061      1.99906     4.20693    0.01462     6.22061
      C   31   -0.18524      1.99906     4.17155    0.01463     6.18524
      C   32   -0.17203      1.99895     4.15769    0.01538     6.17203
      H   33    0.19344      0.00000     0.80310    0.00345     0.80656
      H   34    0.17965      0.00000     0.81732    0.00302     0.82035
      H   35    0.18387      0.00000     0.81267    0.00345     0.81613
      C   36   -0.18132      1.99910     4.16795    0.01426     6.18132
      C   37   -0.19000      1.99897     4.17655    0.01448     6.19000
      H   38    0.18071      0.00000     0.81616    0.00313     0.81929
      H   39    0.19118      0.00000     0.80496    0.00386     0.80882
      H   40    0.17872      0.00000     0.81820    0.00308     0.82128
      H   41    0.18680      0.00000     0.81018    0.00302     0.81320
 =======================================================================
   * Total *   -1.00000     45.97818   113.54216    0.47966   160.00000

 ******   31 imaginary frequencies (negative Signs) ******

                      1                      2                      3
                      A                      A                      A
 Frequencies --  -1237.2418             -1227.9403             -1197.5099
 Red. masses --      1.0765                 1.0237                 1.0465
 Frc consts  --      0.9709                 0.9094                 0.8842
 IR Inten    --     60.6713                 2.8595                15.3755

                      4                      5                      6
                      A                      A                      A
 Frequencies --  -1167.6601             -1151.0777             -1100.3543
 Red. masses --      1.0764                 1.0413                 1.0736
 Frc consts  --      0.8647                 0.8129                 0.7659
 IR Inten    --     55.9924                 2.1260                60.3858

                      7                      8                      9
                      A                      A                      A
 Frequencies --  -1056.6093             -1032.0327             -1020.1008
 Red. masses --      1.0269                 1.0266                 1.0256
 Frc consts  --      0.6755                 0.6442                 0.6288
 IR Inten    --      0.4520                 5.6948                 1.3636

                     10                     11                     12
                      A                      A                      A
 Frequencies --   -992.8575              -935.4930              -898.6187
 Red. masses --      1.0314                 1.0272                 1.0165
 Frc consts  --      0.5990                 0.5296                 0.4836
 IR Inten    --      4.3605                 0.1955                 0.0832

                     13                     14                     15
                      A                      A                      A
 Frequencies --   -831.3053              -750.3281              -725.4283
 Red. masses --      1.0095                 1.0421                 1.0359
 Frc consts  --      0.4111                 0.3457                 0.3212
 IR Inten    --      0.2726                 2.4775                 3.9923

                     16                     17                     18
                      A                      A                      A
 Frequencies --   -716.6204              -627.2038              -608.6581
 Red. masses --      1.1044                 1.2058                 1.1296
 Frc consts  --      0.3341                 0.2795                 0.2466
 IR Inten    --      0.5959                 2.6831                 0.2220

                     19                     20                     21
                      A                      A                      A
 Frequencies --   -600.3186              -567.1984              -545.5746
 Red. masses --      1.2867                 1.0400                 1.2719
 Frc consts  --      0.2732                 0.1971                 0.2230
 IR Inten    --      2.7059                 6.1214                 2.3757

                     22                     23                     24
                      A                      A                      A
 Frequencies --   -525.7153              -479.5171              -438.4833
 Red. masses --      1.2752                 1.4841                 1.3893
 Frc consts  --      0.2077                 0.2011                 0.1574
 IR Inten    --      6.5775                 6.3182                 8.3579

                     25                     26                     27
                      A                      A                      A
 Frequencies --   -430.1383              -427.9691              -394.5729
 Red. masses --      1.3809                 1.2014                 1.3805
 Frc consts  --      0.1505                 0.1296                 0.1266
 IR Inten    --     13.4941                13.2863                 1.2288

                     28                     29                     30
                      A                      A                      A
 Frequencies --   -344.3711              -325.9198              -282.3390
 Red. masses --      1.5002                 1.5402                 1.3923
 Frc consts  --      0.1048                 0.0964                 0.0654
 IR Inten    --      1.8377                 0.5006                 1.1130

                     31                     32                     33
                      A                      A                      A
 Frequencies --   -124.1072                93.1358               120.2851
 Red. masses --      1.5116                 8.8076                 5.0368
 Frc consts  --      0.0137                 0.0450                 0.0429
 IR Inten    --      3.4782                 2.8915                 0.3714

                     34                     35                     36
                      A                      A                      A
 Frequencies --    164.2248               169.6779               182.0107
 Red. masses --      1.5596                 5.8843                 9.0760
 Frc consts  --      0.0248                 0.0998                 0.1771
 IR Inten    --      3.7465                 0.6091                 0.1221

                     37                     38                     39
                      A                      A                      A
 Frequencies --    197.4931               213.3983               249.8757
 Red. masses --      6.0119                 5.8344                 5.6584
 Frc consts  --      0.1382                 0.1565                 0.2082
 IR Inten    --      1.2340                 0.5705                 2.2923

                     40                     41                     42
                      A                      A                      A
 Frequencies --    266.4035               318.4418               338.9158
 Red. masses --      4.3735                 7.0436                 2.7220
 Frc consts  --      0.1829                 0.4208                 0.1842
 IR Inten    --      3.0880                 0.8397                 0.4177

                     43                     44                     45
                      A                      A                      A
 Frequencies --    364.6240               394.7648               406.0557
 Red. masses --      3.5087                 5.1673                 3.6446
 Frc consts  --      0.2748                 0.4745                 0.3541
 IR Inten    --      7.8582                 7.1681                 1.6420

                     46                     47                     48
                      A                      A                      A
 Frequencies --    477.4352               484.1683               491.2395
 Red. masses --      1.4779                 5.2462                 2.6192
 Frc consts  --      0.1985                 0.7246                 0.3724
 IR Inten    --      8.3132                 2.7502                 8.5270

                     49                     50                     51
                      A                      A                      A
 Frequencies --    506.2170               548.8182               558.3801
 Red. masses --      3.5780                 2.2337                10.2789
 Frc consts  --      0.5402                 0.3964                 1.8882
 IR Inten    --      3.8985                 8.9821                 0.6615

                     52                     53                     54
                      A                      A                      A
 Frequencies --    562.4041               573.6579               604.4349
 Red. masses --     10.8781                 3.0314                 2.2846
 Frc consts  --      2.0272                 0.5878                 0.4918
 IR Inten    --      0.5787                 8.6945                 3.8377

                     55                     56                     57
                      A                      A                      A
 Frequencies --    611.6268               635.2425               651.0846
 Red. masses --     10.8943                 4.5846                 6.4576
 Frc consts  --      2.4012                 1.0900                 1.6129
 IR Inten    --      0.5038                15.6923                 4.9710

                     58                     59                     60
                      A                      A                      A
 Frequencies --    652.8042               674.8259               736.0617
 Red. masses --      6.9242                 7.1666                 3.3428
 Frc consts  --      1.7386                 1.9229                 1.0671
 IR Inten    --      6.8094                 2.0113                 6.9585

                     61                     62                     63
                      A                      A                      A
 Frequencies --    743.8381               770.7492               789.0292
 Red. masses --      3.5043                 2.4957                 2.1159
 Frc consts  --      1.1424                 0.8735                 0.7761
 IR Inten    --      6.1114                 6.6222                 3.8126

                     64                     65                     66
                      A                      A                      A
 Frequencies --    796.3926               818.3280               837.8401
 Red. masses --      4.8102                 4.9282                 2.8500
 Frc consts  --      1.7975                 1.9444                 1.1788
 IR Inten    --      0.1731                 2.6500                 6.6823

                     67                     68                     69
                      A                      A                      A
 Frequencies --    842.7762               845.6531               871.7437
 Red. masses --      6.1381                 3.5820                 1.8538
 Frc consts  --      2.5687                 1.5092                 0.8300
 IR Inten    --      5.4763                 1.2057                 4.0215

                     70                     71                     72
                      A                      A                      A
 Frequencies --    879.5999               906.7416               920.5292
 Red. masses --      2.0943                 3.2629                 3.1519
 Frc consts  --      0.9547                 1.5806                 1.5736
 IR Inten    --      5.0935                 0.8024                 2.5502

                     73                     74                     75
                      A                      A                      A
 Frequencies --    922.5133               953.2412               962.2036
 Red. masses --      2.2227                 4.3529                 4.8428
 Frc consts  --      1.1145                 2.3304                 2.6417
 IR Inten    --      1.8064                11.5763                45.2841

                     76                     77                     78
                      A                      A                      A
 Frequencies --    996.9356              1054.1266              1063.6257
 Red. masses --      5.8373                 6.3407                 6.3767
 Frc consts  --      3.4182                 4.1512                 4.2504
 IR Inten    --     12.8489                 0.0385                 0.4178

                     79                     80                     81
                      A                      A                      A
 Frequencies --   1166.5550              1201.2640              1240.5995
 Red. masses --      6.1494                 6.8409                 6.5299
 Frc consts  --      4.9305                 5.8162                 5.9213
 IR Inten    --      4.9749                14.6508                14.0855

                     82                     83                     84
                      A                      A                      A
 Frequencies --   1249.2883              1306.8152              1394.7606
 Red. masses --      7.0398                 8.9805                 6.8140
 Frc consts  --      6.4734                 9.0361                 7.8100
 IR Inten    --     50.8306                63.3045                 0.6227

                     85                     86                     87
                      A                      A                      A
 Frequencies --   1421.6005              1448.4005              1452.6143
 Red. masses --      7.6558                 9.6304                 9.3256
 Frc consts  --      9.1159                11.9034                11.5939
 IR Inten    --      1.6508               188.6707                57.2628

                     88                     89                     90
                      A                      A                      A
 Frequencies --   1454.8690              1483.0072              1497.8076
 Red. masses --      8.3103                 8.1596                 7.4852
 Frc consts  --     10.3637                10.5732                 9.8939
 IR Inten    --      8.0300                 9.5116                10.7081

                     91                     92                     93
                      A                      A                      A
 Frequencies --   1508.3799              1582.2630              1643.0749
 Red. masses --      9.7151                 8.6989                10.2101
 Frc consts  --     13.0233                12.8314                16.2403
 IR Inten    --    291.4241                 1.5990               253.6186

                     94                     95                     96
                      A                      A                      A
 Frequencies --   1688.4650              1692.1250              1709.7400
 Red. masses --     10.9947                10.5604                10.6724
 Frc consts  --     18.4678                17.8153                18.3812
 IR Inten    --     16.5379                26.7326                31.1331

                     97                     98                     99
                      A                      A                      A
 Frequencies --   1714.8714              1731.0471              1817.6291
 Red. masses --     10.8724                10.0901                10.0033
 Frc consts  --     18.8382                17.8141                19.4717
 IR Inten    --    451.2178                 3.9108                 0.3049

                    100                    101                    102
                      A                      A                      A
 Frequencies --   4249.3238              4338.3092              4462.5012
 Red. masses --      1.0898                 1.0897                 1.0897
 Frc consts  --     11.5937                12.0840                12.7851
 IR Inten    --     13.5264                 1.5396                 5.8231

                    103                    104                    105
                      A                      A                      A
 Frequencies --   4510.1267              4566.8501              4569.9732
 Red. masses --      1.0893                 1.0897                 1.0905
 Frc consts  --     13.0551                13.3899                13.4184
 IR Inten    --      7.3032                 0.6537                 0.9348

                    106                    107                    108
                      A                      A                      A
 Frequencies --   4611.8552              4629.8800              4633.7685
 Red. masses --      1.0910                 1.0588                 1.0907
 Frc consts  --     13.6722                13.3725                13.7980
 IR Inten    --      4.9464                 2.2900                 2.1813

                    109                    110                    111
                      A                      A                      A
 Frequencies --   4644.7360              4656.7576              4677.4892
 Red. masses --      1.0901                 1.0868                 1.0888
 Frc consts  --     13.8558                13.8860                14.0359
 IR Inten    --      1.0814                12.3317                15.8489

                    112                    113                    114
                      A                      A                      A
 Frequencies --   4688.6864              4694.1483              4696.6594
 Red. masses --      1.0909                 1.0876                 1.0868
 Frc consts  --     14.1298                14.1196                14.1251
 IR Inten    --     16.3604                15.8820                20.9131

                    115                    116                    117
                      A                      A                      A
 Frequencies --   4710.2904              4732.5050              4771.1226
 Red. masses --      1.0901                 1.0903                 1.1094
 Frc consts  --     14.2496                14.3876                14.8798
 IR Inten    --     14.8606                 2.8045                 1.4767

 - Thermochemistry -
 -------------------
 Temperature   298.150 Kelvin.  Pressure   1.00000 Atm.
 Atom     1 has atomic number  8 and mass  15.99491

 Molecular mass:   300.13884 amu.
 Principal axes and moments of inertia in atomic units:
                           1         2         3
     Eigenvalues --  4407.35731********************
           X            0.99998  -0.00047   0.00572
           Y            0.00049   0.99999  -0.00375
           Z           -0.00571   0.00375   0.99998
 This molecule is an asymmetric top.
 Rotational symmetry number  1.
 Warning -- assumption of classical behavior for rotation
           may cause significant error
 Rotational temperatures (Kelvin)      0.01965     0.00671     0.00564
 Rotational constants (GHZ):           0.40948     0.13985     0.11759
   31 imaginary frequencies ignored.
 Zero-point vibrational energy     852182.2 (Joules/Mol)
                                  203.67643 (Kcal/Mol)
 Warning -- explicit consideration of  24 degrees of freedom as
           vibrations may cause significant error
 Vibrational temperatures:    134.00   173.06   236.28   244.13   261.87
          (Kelvin)            284.15   307.03   359.52   383.30   458.17
                              487.62   524.61   567.98   584.22   686.92
                              696.61   706.78   728.33   789.63   803.38
                              809.17   825.37   869.65   879.99   913.97
                              936.77   939.24   970.92  1059.03  1070.22
                             1108.94  1135.24  1145.83  1177.39  1205.47
                             1212.57  1216.71  1254.24  1265.55  1304.60
                             1324.44  1327.29  1371.50  1384.40  1434.37
                             1516.65  1530.32  1678.41  1728.35  1784.95
                             1797.45  1880.22  2006.75  2045.37  2083.93
                             2089.99  2093.23  2133.72  2155.01  2170.22
                             2276.52  2364.02  2429.32  2434.59  2459.93
                             2467.32  2490.59  2615.16  6113.83  6241.86
                             6420.54  6489.07  6570.68  6575.17  6635.43
                             6661.36  6666.96  6682.74  6700.04  6729.86
                             6745.97  6753.83  6757.45  6777.06  6809.02
                             6864.58

 Zero-point correction=                           0.324579 (Hartree/Particle)
 Thermal correction to Energy=                    0.338278
 Thermal correction to Enthalpy=                  0.339222
 Thermal correction to Gibbs Free Energy=         0.284244
 Sum of electronic and zero-point Energies=           -938.721464
 Sum of electronic and thermal Energies=              -938.707766
 Sum of electronic and thermal Enthalpies=            -938.706821
 Sum of electronic and thermal Free Energies=         -938.761799

                     E (Thermal)             CV                S
                      KCal/Mol        Cal/Mol-Kelvin    Cal/Mol-Kelvin
 Total                  212.272             57.839            115.710
 Electronic               0.000              0.000              0.000
 Translational            0.889              2.981             42.994
 Rotational               0.889              2.981             35.122
 Vibrational            210.495             51.877             37.594
 Vibration     1          0.602              1.954              3.593
 Vibration     2          0.609              1.932              3.096
 Vibration     3          0.623              1.886              2.501
 Vibration     4          0.625              1.880              2.439
 Vibration     5          0.630              1.864              2.308
 Vibration     6          0.637              1.843              2.156
 Vibration     7          0.644              1.821              2.014
 Vibration     8          0.663              1.763              1.731
 Vibration     9          0.672              1.735              1.619
 Vibration    10          0.705              1.638              1.318
 Vibration    11          0.719              1.598              1.217
 Vibration    12          0.738              1.545              1.102
 Vibration    13          0.762              1.481              0.982
 Vibration    14          0.771              1.457              0.941
 Vibration    15          0.834              1.300              0.717
 Vibration    16          0.840              1.285              0.699
 Vibration    17          0.847              1.269              0.680
 Vibration    18          0.861              1.236              0.643
 Vibration    19          0.904              1.142              0.547
 Vibration    20          0.914              1.121              0.527
 Vibration    21          0.918              1.113              0.519
 Vibration    22          0.930              1.088              0.497
 Vibration    23          0.963              1.022              0.442
 Vibration    24          0.971              1.007              0.430

 Normal termination of Gaussian 16 at Mon Mar  6 11:52:06 2023.
