 Gaussian 16, Revision C.01,
 Gaussian 16:  ES64L-G16RevC.01  3-Jul-2019

 ----------------------------------------------------------------------
 #p pop=(regular,nbo,savenbos) freq=noraman def2svp empiricaldispersion
 =gd3bj output=wfx pbe1pbe
 ----------------------------------------------------------------------

 ----------------------------------------
 THZLCU_Complex_0_Ligand_1_ON_Cu_oriented
 ----------------------------------------
 Symbolic Z-matrix:
 Charge = -1 Multiplicity = 1

                         Standard orientation:
 ---------------------------------------------------------------------
 Center     Atomic      Atomic             Coordinates (Angstroms)
 Number     Number       Type             X           Y           Z
 ---------------------------------------------------------------------
      1         16           0       -2.168988   -0.458531   -0.014521
      2          7           0       -0.267959    1.244639    0.168675
      3          6           0        0.369463   -0.038445    0.433002
      4          6           0       -0.486991   -1.096205   -0.218779
      5          6           0       -1.578413    1.269665   -0.145267
      6          1           0       -0.424017   -1.912688    0.299786
      7          1           0       -0.217825   -1.522975   -1.147688
      8          8           0        2.411576   -1.126330    0.002837
      9          8           0        2.383228    1.088706   -0.244469
     10          6           0        1.841380   -0.041278    0.020850
     11          1           0        0.240842   -0.135892    1.606415
     12          1           0       -2.250549    1.934151   -0.312684
 ---------------------------------------------------------------------

 SCF Done:  E(RPBE1PBE) =  -757.269501014     A.U. after   17 cycles

 The electronic state is 1-A.
 Alpha  occ. eigenvalues --  -88.86970 -18.94569 -18.92720 -14.25441 -10.16272
 Alpha  occ. eigenvalues --  -10.11868 -10.11086 -10.10918  -7.87119  -5.81318
 Alpha  occ. eigenvalues --   -5.80974  -5.80408  -0.84045  -0.80174  -0.73086
 Alpha  occ. eigenvalues --   -0.65940  -0.61989  -0.49608  -0.47957  -0.36396
 Alpha  occ. eigenvalues --   -0.34768  -0.33691  -0.28566  -0.25709  -0.24832
 Alpha  occ. eigenvalues --   -0.22526  -0.20122  -0.19352  -0.17934  -0.11736
 Alpha  occ. eigenvalues --   -0.09962  -0.05324  -0.04741  -0.02616
 Alpha virt. eigenvalues --    0.11048   0.17568   0.21385   0.22918   0.24398
 Alpha virt. eigenvalues --    0.25330   0.27073   0.30576   0.35172   0.38793
 Alpha virt. eigenvalues --    0.42873   0.45015   0.50355   0.55212   0.56392

 Mulliken charges:
               1
     1  S   -0.209802
     2  N   -0.213892
     3  C   -0.050779
     4  C    0.030254
     5  C    0.081912
     6  H   -0.004123
     7  H    0.037537
     8  O   -0.409042
     9  O   -0.446241
    10  C    0.157487
    11  H    0.045918
    12  H   -0.019229
 Sum of Mulliken charges =  -1.00000

 Dipole moment (field-independent basis, Debye):
    X=             -8.6110    Y=             -1.0798    Z=              0.6076  Tot=              8.6997
 Quadrupole moment (field-independent basis, Debye-Ang):
   XX=            -86.4902   YY=            -62.1883   ZZ=            -54.2745
   XY=             -4.5088   XZ=              2.3700   YZ=              0.3472

  Exact polarizability:      87.761      -2.007      68.654       2.109      -0.734      45.116
 Approx polarizability:     139.460       0.899     121.057       5.329      -3.262      69.003

 Summary of Natural Population Analysis:

                                       Natural Population
                Natural  -----------------------------------------------
    Atom  No    Charge         Core      Valence    Rydberg      Total
 -----------------------------------------------------------------------
      S    1    0.02888      9.99929     5.94095    0.03088    15.97112
      N    2   -0.42080      1.99934     5.40386    0.01761     7.42080
      C    3   -0.18784      1.99901     4.16183    0.02700     6.18784
      C    4   -0.49196      1.99891     4.47373    0.01932     6.49196
      C    5   -0.01517      1.99931     3.99266    0.02321     6.01517
      H    6    0.21064      0.00000     0.78430    0.00506     0.78936
      H    7    0.23020      0.00000     0.76475    0.00504     0.76980
      O    8   -0.76755      1.99974     6.75750    0.01031     8.76755
      O    9   -0.77145      1.99978     6.76322    0.00845     8.77145
      C   10    0.78500      1.99932     3.14334    0.07234     5.21500
      H   11    0.24424      0.00000     0.74962    0.00613     0.75576
      H   12    0.15580      0.00000     0.84116    0.00305     0.84420
 =======================================================================
   * Total *   -1.00000     23.99468    43.77693    0.22839    68.00000

 ******    4 imaginary frequencies (negative Signs) ******

                      1                      2                      3
                      A                      A                      A
 Frequencies --  -1208.4661              -826.7636              -782.5136
 Red. masses --      1.0892                 1.0838                 1.1222
 Frc consts  --      0.9372                 0.4365                 0.4048
 IR Inten    --     26.2774                 5.4437                 5.1991

                      4                      5                      6
                      A                      A                      A
 Frequencies --   -653.4455                88.1428               191.3810
 Red. masses --      1.1028                12.8648                 6.6125
 Frc consts  --      0.2774                 0.0589                 0.1427
 IR Inten    --      4.5820                 0.3954                12.2442

                      7                      8                      9
                      A                      A                      A
 Frequencies --    291.5093               349.2776               486.7912
 Red. masses --      9.4837                11.2990                 8.1945
 Frc consts  --      0.4748                 0.8121                 1.1441
 IR Inten    --      2.8146                 3.4172                 2.5665

                     10                     11                     12
                      A                      A                      A
 Frequencies --    575.6930               587.4715               657.9046
 Red. masses --      8.3375                10.7389                 5.3442
 Frc consts  --      1.6280                 2.1837                 1.3629
 IR Inten    --      1.3754                18.7494                13.6991

                     13                     14                     15
                      A                      A                      A
 Frequencies --    701.1291               757.7593               814.3454
 Red. masses --      6.3750                 4.9801                 4.7801
 Frc consts  --      1.8464                 1.6848                 1.8677
 IR Inten    --     13.0234                30.9069                30.1829

                     16                     17                     18
                      A                      A                      A
 Frequencies --    845.8787               950.6750               969.7216
 Red. masses --      4.3326                 2.9631                 2.9777
 Frc consts  --      1.8265                 1.5778                 1.6498
 IR Inten    --     53.4023                10.7825                16.9358

                     19                     20                     21
                      A                      A                      A
 Frequencies --   1046.0613              1112.8686              1255.0602
 Red. masses --      3.2566                 2.7870                 2.6522
 Frc consts  --      2.0996                 2.0336                 2.4614
 IR Inten    --     22.9826                34.7158                 2.6458

                     22                     23                     24
                      A                      A                      A
 Frequencies --   1267.5379              1318.8756              1363.2231
 Red. masses --      1.4922                 1.7124                 1.3614
 Frc consts  --      1.4125                 1.7550                 1.4906
 IR Inten    --     11.8758                43.0872                18.1206

                     25                     26                     27
                      A                      A                      A
 Frequencies --   1392.5100              1804.9388              2380.7585
 Red. masses --      8.2834                12.9524                 1.0791
 Frc consts  --      9.4635                24.8614                 3.6037
 IR Inten    --    244.3141               406.2038                42.7611

                     28                     29                     30
                      A                      A                      A
 Frequencies --   3534.3545              4503.9727              4684.3623
 Red. masses --      1.0820                 1.0848                 1.0901
 Frc consts  --      7.9635                12.9657                14.0938
 IR Inten    --     13.2779                 1.0497                 6.6239

 - Thermochemistry -
 -------------------
 Temperature   298.150 Kelvin.  Pressure   1.00000 Atm.
 Atom     1 has atomic number 16 and mass  31.97207

 Molecular mass:   129.99628 amu.
 Principal axes and moments of inertia in atomic units:
                           1         2         3
     Eigenvalues --   427.755131515.149441881.80207
           X            0.99994  -0.01038   0.00291
           Y            0.01037   0.99994   0.00323
           Z           -0.00294  -0.00320   0.99999
 This molecule is an asymmetric top.
 Rotational symmetry number  1.
 Rotational temperatures (Kelvin)      0.20248     0.05717     0.04603
 Rotational constants (GHZ):           4.21910     1.19113     0.95905
    4 imaginary frequencies ignored.
 Zero-point vibrational energy     202959.6 (Joules/Mol)
                                   48.50852 (Kcal/Mol)
 Warning -- explicit consideration of   7 degrees of freedom as
           vibrations may cause significant error
 Vibrational temperatures:    126.82   275.35   419.42   502.53   700.38
          (Kelvin)            828.29   845.24   946.58  1008.77  1090.25
                             1171.66  1217.03  1367.81  1395.21  1505.05
                             1601.17  1805.75  1823.70  1897.57  1961.37
                             2003.51  2596.90  3425.38  5085.15  6480.21
                             6739.75

 Zero-point correction=                           0.077303 (Hartree/Particle)
 Thermal correction to Energy=                    0.083505
 Thermal correction to Enthalpy=                  0.084450
 Thermal correction to Gibbs Free Energy=         0.045933
 Sum of electronic and zero-point Energies=           -757.192198
 Sum of electronic and thermal Energies=              -757.185996
 Sum of electronic and thermal Enthalpies=            -757.185051
 Sum of electronic and thermal Free Energies=         -757.223568

                     E (Thermal)             CV                S
                      KCal/Mol        Cal/Mol-Kelvin    Cal/Mol-Kelvin
 Total                   52.400             22.302             81.065
 Electronic               0.000              0.000              0.000
 Translational            0.889              2.981             40.500
 Rotational               0.889              2.981             28.591
 Vibrational             50.623             16.340             11.974
 Vibration     1          0.601              1.958              3.701
 Vibration     2          0.634              1.852              2.214
 Vibration     3          0.687              1.690              1.465
 Vibration     4          0.727              1.577              1.169
 Vibration     5          0.843              1.279              0.692
 Vibration     6          0.932              1.084              0.493
 Vibration     7          0.945              1.059              0.472

 Normal termination of Gaussian 16 at Mon Mar  6 10:25:47 2023.
