 Gaussian 16, Revision C.01,
 Gaussian 16:  ES64L-G16RevC.01  3-Jul-2019

 ----------------------------------------------------------------------
 #p pop=(regular,nbo,savenbos) freq=noraman def2svp empiricaldispersion
 =gd3bj output=wfx pbe1pbe
 ----------------------------------------------------------------------

 ----------------------------------------
 THZLCU_Complex_0_Ligand_3_ON_Cu_oriented
 ----------------------------------------
 Symbolic Z-matrix:
 Charge = -1 Multiplicity = 1

                         Standard orientation:
 ---------------------------------------------------------------------
 Center     Atomic      Atomic             Coordinates (Angstroms)
 Number     Number       Type             X           Y           Z
 ---------------------------------------------------------------------
      1         16           0       -2.139093   -0.508738   -0.017407
      2          7           0       -0.258003    1.257677    0.420525
      3          6           0        0.414773   -0.074605    0.596977
      4          6           0       -0.446724   -1.160397   -0.087161
      5          1           0        0.544625   -0.183455    1.614812
      6          1           0       -0.322080   -1.898916    0.489745
      7          1           0       -0.754804    1.396342    1.270825
      8          6           0       -1.471601    1.131063   -0.438836
      9          1           0       -2.098035    1.771208   -0.388401
     10          8           0        2.420398   -1.127806   -0.155889
     11          8           0        2.341623    1.058168   -0.268299
     12          6           0        1.834821   -0.056221   -0.006919
     13          1           0       -1.268064    1.096082   -1.531416
     14          1           0       -0.153931   -1.327135   -1.111589
 ---------------------------------------------------------------------

 SCF Done:  E(RPBE1PBE) =  -758.462092918     A.U. after   15 cycles

 The electronic state is 1-A.
 Alpha  occ. eigenvalues --  -88.85390 -18.92756 -18.91631 -14.23560 -10.13631
 Alpha  occ. eigenvalues --  -10.10218 -10.09319 -10.09311  -7.85607  -5.79802
 Alpha  occ. eigenvalues --   -5.79517  -5.78837  -0.83164  -0.79634  -0.72501
 Alpha  occ. eigenvalues --   -0.65716  -0.62902  -0.50550  -0.47525  -0.40151
 Alpha  occ. eigenvalues --   -0.34116  -0.31707  -0.30783  -0.27978  -0.25731
 Alpha  occ. eigenvalues --   -0.24261  -0.22861  -0.20339  -0.18608  -0.17218
 Alpha  occ. eigenvalues --   -0.11791  -0.09494  -0.03858  -0.03783  -0.01417
 Alpha virt. eigenvalues --    0.17688   0.20552   0.22509   0.24669   0.25507
 Alpha virt. eigenvalues --    0.27212   0.28689   0.29390   0.30799   0.32262
 Alpha virt. eigenvalues --    0.39441   0.40853   0.45492   0.50412   0.54001

 Mulliken charges:
               1
     1  S   -0.250196
     2  N   -0.220837
     3  C   -0.063150
     4  C    0.034136
     5  H   -0.007100
     6  H   -0.008121
     7  H    0.072862
     8  C    0.126741
     9  H   -0.065026
    10  O   -0.426526
    11  O   -0.421113
    12  C    0.112803
    13  H    0.049592
    14  H    0.065935
 Sum of Mulliken charges =  -1.00000

 Dipole moment (field-independent basis, Debye):
    X=             -8.6706    Y=             -0.0110    Z=              1.4080  Tot=              8.7842
 Quadrupole moment (field-independent basis, Debye-Ang):
   XX=            -89.8093   YY=            -64.0454   ZZ=            -53.3686
   XY=             -4.3871   XZ=              3.6174   YZ=              0.0187

  Exact polarizability:      76.804      -0.369      66.159       0.578      -1.097      51.652
 Approx polarizability:     106.452       1.735     109.516      -0.409      -2.347      76.566

 Summary of Natural Population Analysis:

                                       Natural Population
                Natural  -----------------------------------------------
    Atom  No    Charge         Core      Valence    Rydberg      Total
 -----------------------------------------------------------------------
      S    1    0.00267      9.99934     5.96659    0.03140    15.99733
      N    2   -0.66967      1.99945     5.65259    0.01763     7.66967
      C    3   -0.13195      1.99904     4.10837    0.02454     6.13195
      C    4   -0.48609      1.99900     4.46657    0.02052     6.48609
      H    5    0.19873      0.00000     0.79670    0.00457     0.80127
      H    6    0.19376      0.00000     0.80195    0.00429     0.80624
      H    7    0.33685      0.00000     0.65482    0.00832     0.66315
      C    8   -0.23412      1.99896     4.21436    0.02080     6.23412
      H    9    0.13237      0.00000     0.86288    0.00475     0.86763
      O   10   -0.79398      1.99974     6.78384    0.01040     8.79398
      O   11   -0.77229      1.99975     6.76311    0.00943     8.77229
      C   12    0.78341      1.99942     3.14127    0.07590     5.21659
      H   13    0.20690      0.00000     0.78779    0.00531     0.79310
      H   14    0.23342      0.00000     0.76228    0.00430     0.76658
 =======================================================================
   * Total *   -1.00000     23.99471    45.76312    0.24217    70.00000

 ******    5 imaginary frequencies (negative Signs) ******

                      1                      2                      3
                      A                      A                      A
 Frequencies --  -1557.0213             -1460.2694             -1053.0321
 Red. masses --      1.0794                 1.0878                 1.0643
 Frc consts  --      1.5418                 1.3666                 0.6953
 IR Inten    --      3.4010                 1.4884                 3.6841

                      4                      5                      6
                      A                      A                      A
 Frequencies --   -961.4688              -168.5883               141.1179
 Red. masses --      1.1181                 5.8578                 4.6163
 Frc consts  --      0.6090                 0.0981                 0.0542
 IR Inten    --     14.6381                 3.2247                 4.2412

                      7                      8                      9
                      A                      A                      A
 Frequencies --    234.8450               288.5700               338.6135
 Red. masses --      8.3137                 2.9222                 4.7115
 Frc consts  --      0.2702                 0.1434                 0.3183
 IR Inten    --      3.0652                41.7137                17.8785

                     10                     11                     12
                      A                      A                      A
 Frequencies --    456.0543               517.1398               600.7658
 Red. masses --      4.5696                 3.4953                 7.1728
 Frc consts  --      0.5600                 0.5507                 1.5253
 IR Inten    --      6.3142                 5.1258                 6.5985

                     13                     14                     15
                      A                      A                      A
 Frequencies --    689.6411               712.4232               770.0218
 Red. masses --      5.1863                 3.2648                 5.0473
 Frc consts  --      1.4533                 0.9763                 1.7633
 IR Inten    --      7.1415                37.5403                95.6698

                     16                     17                     18
                      A                      A                      A
 Frequencies --    804.5819               849.9828               875.4351
 Red. masses --      7.0421                 3.2646                 3.3028
 Frc consts  --      2.6859                 1.3896                 1.4914
 IR Inten    --     16.4032                 8.3941                26.9261

                     19                     20                     21
                      A                      A                      A
 Frequencies --    899.2089               976.4934              1058.9726
 Red. masses --      1.7743                 2.4014                 3.7745
 Frc consts  --      0.8453                 1.3491                 2.4939
 IR Inten    --      1.9062                12.1893                 2.1659

                     22                     23                     24
                      A                      A                      A
 Frequencies --   1085.7773              1134.2232              1152.0416
 Red. masses --      3.4028                 1.4177                 1.8294
 Frc consts  --      2.3636                 1.0746                 1.4306
 IR Inten    --     20.2703                11.3549                 3.8590

                     25                     26                     27
                      A                      A                      A
 Frequencies --   1210.5884              1238.4512              1327.4193
 Red. masses --      1.1418                 1.1752                 1.1234
 Frc consts  --      0.9859                 1.0620                 1.1663
 IR Inten    --      4.3129                14.3632                 4.0121

                     28                     29                     30
                      A                      A                      A
 Frequencies --   1427.4244              1485.6486              1832.0588
 Red. masses --      1.1621                 9.4653                12.8817
 Frc consts  --      1.3951                12.3088                25.4743
 IR Inten    --      8.0365               265.4697               421.9525

                     31                     32                     33
                      A                      A                      A
 Frequencies --   2992.1716              3317.4201              3780.9576
 Red. masses --      1.0766                 1.0780                 1.0869
 Frc consts  --      5.6789                 6.9898                 9.1546
 IR Inten    --     50.8202                 5.6135                17.8089

                     34                     35                     36
                      A                      A                      A
 Frequencies --   3823.2438              4832.6585              5502.4970
 Red. masses --      1.0744                 1.0881                 1.0874
 Frc consts  --      9.2530                14.9730                19.3972
 IR Inten    --      2.5569                 0.5749                 1.1768

 - Thermochemistry -
 -------------------
 Temperature   298.150 Kelvin.  Pressure   1.00000 Atm.
 Atom     1 has atomic number 16 and mass  31.97207

 Molecular mass:   132.01193 amu.
 Principal axes and moments of inertia in atomic units:
                           1         2         3
     Eigenvalues --   467.504191519.392251851.60277
           X            0.99981  -0.01829   0.00691
           Y            0.01832   0.99982  -0.00405
           Z           -0.00683   0.00418   0.99997
 This molecule is an asymmetric top.
 Rotational symmetry number  1.
 Warning -- assumption of classical behavior for rotation
           may cause significant error
 Rotational temperatures (Kelvin)      0.18527     0.05701     0.04678
 Rotational constants (GHZ):           3.86037     1.18780     0.97469
    5 imaginary frequencies ignored.
 Zero-point vibrational energy     277273.1 (Joules/Mol)
                                   66.26987 (Kcal/Mol)
 Warning -- explicit consideration of   7 degrees of freedom as
           vibrations may cause significant error
 Vibrational temperatures:    203.04   337.89   415.19   487.19   656.16
          (Kelvin)            744.05   864.37   992.24  1025.02  1107.89
                             1157.61  1222.94  1259.56  1293.76  1404.96
                             1523.63  1562.19  1631.89  1657.53  1741.77
                             1781.86  1909.86  2053.75  2137.52  2635.92
                             4305.07  4773.03  5439.95  5500.80  6953.12
                             7916.87

 Zero-point correction=                           0.105608 (Hartree/Particle)
 Thermal correction to Energy=                    0.111805
 Thermal correction to Enthalpy=                  0.112750
 Thermal correction to Gibbs Free Energy=         0.074561
 Sum of electronic and zero-point Energies=           -758.356485
 Sum of electronic and thermal Energies=              -758.350288
 Sum of electronic and thermal Enthalpies=            -758.349343
 Sum of electronic and thermal Free Energies=         -758.387532

                     E (Thermal)             CV                S
                      KCal/Mol        Cal/Mol-Kelvin    Cal/Mol-Kelvin
 Total                   70.159             23.367             80.375
 Electronic               0.000              0.000              0.000
 Translational            0.889              2.981             40.546
 Rotational               0.889              2.981             28.666
 Vibrational             68.381             17.405             11.163
 Vibration     1          0.615              1.912              2.789
 Vibration     2          0.655              1.788              1.842
 Vibration     3          0.685              1.695              1.482
 Vibration     4          0.719              1.598              1.219
 Vibration     5          0.814              1.348              0.778
 Vibration     6          0.872              1.212              0.617
 Vibration     7          0.959              1.030              0.448

 Normal termination of Gaussian 16 at Mon Mar  6 10:27:18 2023.
