 Gaussian 16, Revision C.01,
 Gaussian 16:  ES64L-G16RevC.01  3-Jul-2019

 ----------------------------------------------------------------------
 #p pop=(regular,nbo,savenbos) freq=noraman def2svp empiricaldispersion
 =gd3bj output=wfx pbe1pbe
 ----------------------------------------------------------------------

 ----------------------------------------
 TIFSOS_Complex_0_Ligand_1_ON_Cu_oriented
 ----------------------------------------
 Symbolic Z-matrix:
 Charge = -1 Multiplicity = 1

                         Standard orientation:
 ---------------------------------------------------------------------
 Center     Atomic      Atomic             Coordinates (Angstroms)
 Number     Number       Type             X           Y           Z
 ---------------------------------------------------------------------
      1          8           0        3.796627   -0.943128    0.610233
      2          7           0        1.483290    0.260985    1.177334
      3          1           0        1.320468    1.104963    1.443457
      4          6           0        3.153452   -0.596195   -0.415782
      5          8           0       -4.021209   -1.568436   -0.600459
      6          1           0       -4.637583   -1.240413   -1.029448
      7          6           0       -0.989301   -0.043009    0.675282
      8          6           0       -3.121320   -0.591682   -0.279377
      9          6           0       -1.928856   -0.985002    0.297284
     10          1           0       -1.757362   -1.889413    0.432702
     11          6           0       -1.256394    1.293476    0.456335
     12          1           0       -0.634971    1.937684    0.707740
     13          6           0       -3.372834    0.741410   -0.519043
     14          1           0       -4.160582    1.006088   -0.934874
     15          6           0        0.253724   -0.526027    1.394639
     16          1           0        0.066886   -0.539541    2.346491
     17          1           0        0.426994   -1.439605    1.120218
     18          6           0       -2.440129    1.675254   -0.132431
     19          1           0       -2.612839    2.578633   -0.270584
     20          6           0        1.936919    0.302932   -0.227852
     21          1           0        1.213195   -0.021734   -0.802549
     22          6           0        2.309261    1.722844   -0.661241
     23          1           0        1.551045    2.301332   -0.546310
     24          1           0        2.570801    1.717265   -1.585084
     25          1           0        3.039719    2.040305   -0.124634
     26          8           0        3.470090   -0.906745   -1.575442
 ---------------------------------------------------------------------

 SCF Done:  E(RPBE1PBE) =  -667.290531153     A.U. after   18 cycles

 The electronic state is 1-A.
 Alpha  occ. eigenvalues --  -19.14451 -18.91378 -18.90674 -14.21057 -10.20256
 Alpha  occ. eigenvalues --  -10.13591 -10.13154 -10.12740 -10.11554 -10.11378
 Alpha  occ. eigenvalues --  -10.10994 -10.07853 -10.06697 -10.04062  -1.02806
 Alpha  occ. eigenvalues --   -0.81584  -0.79955  -0.77724  -0.70936  -0.69720
 Alpha  occ. eigenvalues --   -0.68279  -0.63981  -0.59547  -0.55474  -0.55377
 Alpha  occ. eigenvalues --   -0.50483  -0.47832  -0.45057  -0.40602  -0.38487
 Alpha  occ. eigenvalues --   -0.37656  -0.35933  -0.34730  -0.34328  -0.33660
 Alpha  occ. eigenvalues --   -0.31833  -0.29556  -0.28562  -0.27147  -0.26780
 Alpha  occ. eigenvalues --   -0.26362  -0.25017  -0.23191  -0.21184  -0.17623
 Alpha  occ. eigenvalues --   -0.16843  -0.15805  -0.15024  -0.09143  -0.02618
 Alpha  occ. eigenvalues --   -0.02419  -0.00305
 Alpha virt. eigenvalues --    0.09037   0.10527   0.16179   0.18893   0.21075
 Alpha virt. eigenvalues --    0.21831   0.24035   0.25123   0.26099   0.27198
 Alpha virt. eigenvalues --    0.27843   0.28964   0.31146   0.31606   0.32505

 Mulliken charges:
               1
     1  O   -0.443127
     2  N   -0.177104
     3  H    0.025396
     4  C    0.097741
     5  O   -0.133137
     6  H    0.080650
     7  C   -0.118167
     8  C    0.156740
     9  C    0.042284
    10  H   -0.131675
    11  C    0.096632
    12  H   -0.144357
    13  C    0.017330
    14  H   -0.143637
    15  C    0.362290
    16  H   -0.031437
    17  H   -0.032434
    18  C    0.106297
    19  H   -0.112686
    20  C   -0.073428
    21  H   -0.055037
    22  C    0.198944
    23  H   -0.075029
    24  H   -0.032675
    25  H   -0.036901
    26  O   -0.443473
 Sum of Mulliken charges =  -1.00000

 Dipole moment (field-independent basis, Debye):
    X=            -16.5175    Y=              5.2229    Z=              1.2640  Tot=             17.3697
 Quadrupole moment (field-independent basis, Debye-Ang):
   XX=           -143.9803   YY=            -87.1070   ZZ=            -92.5836
   XY=             14.9653   XZ=             10.2510   YZ=             -1.9845

  Exact polarizability:     138.199       0.106     107.704      13.364      -3.748      85.024
 Approx polarizability:     181.107       1.939     171.629      29.605      -4.473     135.673

 Summary of Natural Population Analysis:

                                       Natural Population
                Natural  -----------------------------------------------
    Atom  No    Charge         Core      Valence    Rydberg      Total
 -----------------------------------------------------------------------
      O    1   -0.78595      1.99975     6.77706    0.00913     8.78595
      N    2   -0.65127      1.99938     5.63138    0.02051     7.65127
      H    3    0.30803      0.00000     0.68494    0.00703     0.69197
      C    4    0.77482      1.99942     3.15057    0.07520     5.22518
      O    5   -0.65263      1.99965     6.63688    0.01611     8.65263
      H    6    0.42236      0.00000     0.57066    0.00698     0.57764
      C    7    0.00464      1.99902     3.98017    0.01617     5.99536
      C    8    0.34906      1.99876     3.62963    0.02255     5.65094
      C    9   -0.24563      1.99887     4.22980    0.01696     6.24563
      H   10    0.18347      0.00000     0.81277    0.00376     0.81653
      C   11   -0.21653      1.99897     4.20074    0.01681     6.21653
      H   12    0.16944      0.00000     0.82431    0.00625     0.83056
      C   13   -0.29734      1.99899     4.28240    0.01596     6.29734
      H   14    0.16629      0.00000     0.83031    0.00340     0.83371
      C   15   -0.16021      1.99897     4.14257    0.01867     6.16021
      H   16    0.18587      0.00000     0.81111    0.00302     0.81413
      H   17    0.18730      0.00000     0.80821    0.00449     0.81270
      C   18   -0.14350      1.99911     4.13012    0.01427     6.14350
      H   19    0.16362      0.00000     0.83317    0.00321     0.83638
      C   20   -0.10057      1.99896     4.07792    0.02368     6.10057
      H   21    0.15831      0.00000     0.83301    0.00868     0.84169
      C   22   -0.54740      1.99913     4.53948    0.00879     6.54740
      H   23    0.15718      0.00000     0.83891    0.00391     0.84282
      H   24    0.19569      0.00000     0.79795    0.00636     0.80431
      H   25    0.17930      0.00000     0.81516    0.00554     0.82070
      O   26   -0.80434      1.99974     6.79463    0.00997     8.80434
 =======================================================================
   * Total *   -1.00000     27.98873    75.66386    0.34741   104.00000

 ******   21 imaginary frequencies (negative Signs) ******

                      1                      2                      3
                      A                      A                      A
 Frequencies --  -2070.5297             -1581.4968             -1454.9846
 Red. masses --      1.0670                 1.0861                 1.0844
 Frc consts  --      2.6951                 1.6005                 1.3525
 IR Inten    --    112.2366               190.2472                63.1167

                      4                      5                      6
                      A                      A                      A
 Frequencies --  -1386.8917             -1375.9264             -1359.1058
 Red. masses --      1.0119                 1.0844                 1.0435
 Frc consts  --      1.1467                 1.2096                 1.1357
 IR Inten    --      5.1323               135.5628                 6.8851

                      7                      8                      9
                      A                      A                      A
 Frequencies --  -1337.8696             -1222.4622             -1103.3358
 Red. masses --      1.0587                 1.0364                 1.0384
 Frc consts  --      1.1164                 0.9126                 0.7448
 IR Inten    --      3.8693                 2.5192                 6.1727

                     10                     11                     12
                      A                      A                      A
 Frequencies --  -1029.0575             -1012.7937              -941.5853
 Red. masses --      1.0607                 1.0465                 1.0796
 Frc consts  --      0.6618                 0.6325                 0.5639
 IR Inten    --      0.7072                14.4902                 1.8062

                     13                     14                     15
                      A                      A                      A
 Frequencies --   -869.3575              -855.5404              -742.0900
 Red. masses --      1.0952                 1.0999                 1.0688
 Frc consts  --      0.4877                 0.4743                 0.3468
 IR Inten    --      1.2611                13.0139                 8.5466

                     16                     17                     18
                      A                      A                      A
 Frequencies --   -528.8799              -458.4366              -399.9238
 Red. masses --      1.3214                 1.4432                 1.6511
 Frc consts  --      0.2178                 0.1787                 0.1556
 IR Inten    --      6.5851                 2.2616                 5.3143

                     19                     20                     21
                      A                      A                      A
 Frequencies --   -228.2694              -167.2395               -75.0489
 Red. masses --      2.3889                 2.9757                12.0041
 Frc consts  --      0.0733                 0.0490                 0.0398
 IR Inten    --      0.4413                 1.4220                 0.2035

                     22                     23                     24
                      A                      A                      A
 Frequencies --    153.4636               194.3075               236.6285
 Red. masses --      6.7629                 1.3010                 4.5757
 Frc consts  --      0.0938                 0.0289                 0.1510
 IR Inten    --      1.7139                37.5232                 3.8237

                     25                     26                     27
                      A                      A                      A
 Frequencies --    274.2481               285.8187               354.9712
 Red. masses --      3.7060                 7.8424                 4.0369
 Frc consts  --      0.1642                 0.3775                 0.2997
 IR Inten    --      5.0574                 1.0434                 0.9292

                     28                     29                     30
                      A                      A                      A
 Frequencies --    396.3626               462.2256               514.1128
 Red. masses --      6.0952                 4.7720                 3.1387
 Frc consts  --      0.5642                 0.6007                 0.4888
 IR Inten    --      2.8916                12.2172                 0.9894

                     31                     32                     33
                      A                      A                      A
 Frequencies --    566.4722               591.6037               605.9595
 Red. masses --      3.8978                 6.8555                 5.5846
 Frc consts  --      0.7369                 1.4137                 1.2082
 IR Inten    --      4.8310                 1.4351                 8.0988

                     34                     35                     36
                      A                      A                      A
 Frequencies --    617.4871               656.4667               737.1705
 Red. masses --      5.7694                 4.0140                 6.6125
 Frc consts  --      1.2961                 1.0192                 2.1171
 IR Inten    --      5.0894                 9.9871                13.5362

                     37                     38                     39
                      A                      A                      A
 Frequencies --    754.5065               781.7289               808.2636
 Red. masses --      3.9709                 3.9373                 4.0289
 Frc consts  --      1.3319                 1.4176                 1.5508
 IR Inten    --      2.4223                 2.8700                33.1405

                     40                     41                     42
                      A                      A                      A
 Frequencies --    831.7026               855.4134               862.0186
 Red. masses --      2.6449                 5.0080                 3.7649
 Frc consts  --      1.0780                 2.1591                 1.6483
 IR Inten    --     24.5351                 5.4766                11.0442

                     43                     44                     45
                      A                      A                      A
 Frequencies --    877.4071               929.7382               961.9901
 Red. masses --      3.9450                 1.2858                 1.5072
 Frc consts  --      1.7894                 0.6548                 0.8218
 IR Inten    --     12.3592                 8.4863                 0.6257

                     46                     47                     48
                      A                      A                      A
 Frequencies --    991.0531              1053.2286              1059.5990
 Red. masses --      1.1913                 3.7361                 6.2911
 Frc consts  --      0.6894                 2.4418                 4.1616
 IR Inten    --      5.0541                31.6033                 2.3205

                     49                     50                     51
                      A                      A                      A
 Frequencies --   1073.9846              1111.8136              1167.7969
 Red. masses --      2.4873                 3.5083                 6.4887
 Frc consts  --      1.6903                 2.5552                 5.2136
 IR Inten    --      2.4233                 2.0428                31.0049

                     52                     53                     54
                      A                      A                      A
 Frequencies --   1206.7874              1316.8975              1464.6636
 Red. masses --      4.4204                 8.0379                 9.4490
 Frc consts  --      3.7929                 8.2129                11.9430
 IR Inten    --     37.7027                40.7903                 4.5541

                     55                     56                     57
                      A                      A                      A
 Frequencies --   1484.0085              1484.6991              1506.0501
 Red. masses --      9.0027                12.3384                 9.1741
 Frc consts  --     11.6814                16.0246                12.2600
 IR Inten    --     11.9949               252.8808               133.1748

                     58                     59                     60
                      A                      A                      A
 Frequencies --   1704.5992              1728.7299              1778.1297
 Red. masses --     10.6265                 9.9793                12.4941
 Frc consts  --     18.1922                17.5713                23.2747
 IR Inten    --    119.9139                20.8801               431.8064

                     61                     62                     63
                      A                      A                      A
 Frequencies --   4358.1087              4427.0422              4460.9877
 Red. masses --      1.0867                 1.0607                 1.0319
 Frc consts  --     12.1602                12.2479                12.0990
 IR Inten    --     19.5583                17.5034                21.9251

                     64                     65                     66
                      A                      A                      A
 Frequencies --   4548.2502              4658.2996              4678.2477
 Red. masses --      1.1084                 1.1062                 1.1066
 Frc consts  --     13.5096                14.1435                14.2695
 IR Inten    --      2.1455                18.3963                 2.7220

                     67                     68                     69
                      A                      A                      A
 Frequencies --   5024.1439              5028.0462              5034.1944
 Red. masses --      1.0868                 1.0892                 1.0890
 Frc consts  --     16.1625                16.2246                16.2605
 IR Inten    --      1.5568                 0.5706                 1.1908

                     70                     71                     72
                      A                      A                      A
 Frequencies --   5041.0835              5163.4074              6318.6576
 Red. masses --      1.0920                 1.0753                 1.0669
 Frc consts  --     16.3494                16.8907                25.0961
 IR Inten    --      2.5506                 5.6176               104.2525

 - Thermochemistry -
 -------------------
 Temperature   298.150 Kelvin.  Pressure   1.00000 Atm.
 Atom     1 has atomic number  8 and mass  15.99491

 Molecular mass:   194.08172 amu.
 Principal axes and moments of inertia in atomic units:
                           1         2         3
     Eigenvalues --  1254.193565512.588355835.87496
           X            0.99995   0.00997   0.00288
           Y           -0.00979   0.99830  -0.05741
           Z           -0.00345   0.05738   0.99835
 This molecule is an asymmetric top.
 Rotational symmetry number  1.
 Warning -- assumption of classical behavior for rotation
           may cause significant error
 Rotational temperatures (Kelvin)      0.06906     0.01571     0.01484
 Rotational constants (GHZ):           1.43897     0.32739     0.30925
   21 imaginary frequencies ignored.
 Zero-point vibrational energy     557355.6 (Joules/Mol)
                                  133.21118 (Kcal/Mol)
 Warning -- explicit consideration of  13 degrees of freedom as
           vibrations may cause significant error
 Vibrational temperatures:    220.80   279.57   340.46   394.58   411.23
          (Kelvin)            510.72   570.28   665.04   739.69   815.03
                              851.19   871.84   888.43   944.51  1060.62
                             1085.57  1124.73  1162.91  1196.63  1230.75
                             1240.25  1262.39  1337.69  1384.09  1425.90
                             1515.36  1524.53  1545.22  1599.65  1680.20
                             1736.30  1894.72  2107.32  2135.16  2136.15
                             2166.87  2452.54  2487.26  2558.33  6270.35
                             6369.53  6418.37  6543.92  6702.25  6730.95
                             7228.62  7234.24  7243.08  7252.99  7428.99
                             9091.14

 Zero-point correction=                           0.212286 (Hartree/Particle)
 Thermal correction to Energy=                    0.220559
 Thermal correction to Enthalpy=                  0.221503
 Thermal correction to Gibbs Free Energy=         0.178000
 Sum of electronic and zero-point Energies=           -667.078246
 Sum of electronic and thermal Energies=              -667.069972
 Sum of electronic and thermal Enthalpies=            -667.069028
 Sum of electronic and thermal Free Energies=         -667.112531

                     E (Thermal)             CV                S
                      KCal/Mol        Cal/Mol-Kelvin    Cal/Mol-Kelvin
 Total                  138.403             34.108             91.559
 Electronic               0.000              0.000              0.000
 Translational            0.889              2.981             41.695
 Rotational               0.889              2.981             32.067
 Vibrational            136.625             28.147             17.797
 Vibration     1          0.619              1.899              2.629
 Vibration     2          0.635              1.848              2.186
 Vibration     3          0.656              1.785              1.828
 Vibration     4          0.677              1.721              1.569
 Vibration     5          0.684              1.700              1.499
 Vibration     6          0.731              1.565              1.144
 Vibration     7          0.763              1.478              0.976
 Vibration     8          0.820              1.334              0.760
 Vibration     9          0.869              1.219              0.624
 Vibration    10          0.922              1.104              0.511
 Vibration    11          0.949              1.050              0.464
 Vibration    12          0.965              1.019              0.440
 Vibration    13          0.977              0.995              0.421

 Normal termination of Gaussian 16 at Mon Mar  6 10:46:11 2023.
