 Gaussian 16, Revision C.01,
 Gaussian 16:  ES64L-G16RevC.01  3-Jul-2019

 ----------------------------------------------------------------------
 #p pop=(regular,nbo,savenbos) freq=noraman def2svp empiricaldispersion
 =gd3bj output=wfx pbe1pbe
 ----------------------------------------------------------------------

 ----------------------------------------
 TOGPOU_Complex_1_Ligand_1_OO_Cu_oriented
 ----------------------------------------
 Symbolic Z-matrix:
 Charge = -1 Multiplicity = 1

                         Standard orientation:
 ---------------------------------------------------------------------
 Center     Atomic      Atomic             Coordinates (Angstroms)
 Number     Number       Type             X           Y           Z
 ---------------------------------------------------------------------
      1          8           0       -2.712416    2.555749   -1.406340
      2          8           0       -3.401778   -0.691286    0.847475
      3          8           0       -0.850542   -2.384634    1.851949
      4          6           0       -2.189517    1.511622   -0.885628
      5          6           0       -2.844560    0.228565   -1.352925
      6          6           0       -2.706575   -0.942954   -0.392612
      7          6           0       -1.183693   -1.116677   -0.156636
      8          6           0       -3.367169   -2.162505   -0.997550
      9          6           0       -0.894521   -2.377427    0.651840
     10          6           0       -0.654079   -3.651305   -0.116885
     11          1           0       -2.448989   -0.024519   -2.178432
     12          1           0       -3.769708    0.398674   -1.481488
     13          1           0       -0.778026   -1.225270   -1.009575
     14          1           0       -2.995778    0.195407    1.362355
     15          1           0       -4.287275   -1.978736   -1.148546
     16          1           0       -3.284887   -2.894671   -0.398380
     17          1           0       -2.943391   -2.371043   -1.817442
     18          1           0       -1.304076   -4.296383    0.131165
     19          1           0        0.214117   -3.980816    0.083831
     20          1           0       -0.717870   -3.475219   -1.048544
     21          8           0       -1.081795    3.813487    0.367267
     22          6           0        0.112055    2.596136    1.945835
     23          6           0       -0.759148    2.642208    0.713624
     24          6           0       -1.174438    1.459102    0.057190
     25          6           0       -0.553721    0.132984    0.499810
     26          6           0        0.948901    0.084185    0.227210
     27          6           0        1.834666   -0.376897    1.178382
     28          6           0        3.193839   -0.490045    0.896671
     29          6           0        3.651145   -0.110506   -0.323714
     30          6           0        2.814735    0.384642   -1.276707
     31          6           0        1.449542    0.481902   -1.007082
     32          1           0        0.327725    1.697988    2.145855
     33          1           0       -0.354816    2.987925    2.674417
     34          1           0        0.910784    3.089538    1.783274
     35          1           0       -0.679797    0.058980    1.438644
     36          1           0        1.514550   -0.621442    2.039539
     37          1           0        3.159841    0.666652   -2.116557
     38          1           0        0.859759    0.821718   -1.671088
     39         17           0        5.358208   -0.254319   -0.681613
     40          1           0        3.795777   -0.830061    1.550641
 ---------------------------------------------------------------------

 SCF Done:  E(RPBE1PBE) =  -1417.42300228     A.U. after   16 cycles

 The electronic state is 1-A.
 Alpha  occ. eigenvalues -- -101.59163 -19.09830 -19.09135 -18.98437 -18.97996
 Alpha  occ. eigenvalues --  -10.21688 -10.19212 -10.17792 -10.13908 -10.13628
 Alpha  occ. eigenvalues --  -10.13533 -10.12858 -10.12797 -10.12777 -10.12391
 Alpha  occ. eigenvalues --  -10.11909 -10.11231 -10.10592 -10.08637 -10.06268
 Alpha  occ. eigenvalues --  -10.05179 -10.04307  -9.44377  -7.18482  -7.17538
 Alpha  occ. eigenvalues --   -7.17525  -0.96553  -0.89266  -0.83872  -0.82707
 Alpha  occ. eigenvalues --   -0.81777  -0.77337  -0.74010  -0.70523  -0.69795
 Alpha  occ. eigenvalues --   -0.69064  -0.65327  -0.64290  -0.63180  -0.60564
 Alpha  occ. eigenvalues --   -0.56465  -0.54467  -0.51481  -0.49050  -0.46436
 Alpha  occ. eigenvalues --   -0.44586  -0.44051  -0.41410  -0.40903  -0.40559
 Alpha  occ. eigenvalues --   -0.39909  -0.38221  -0.37853  -0.37097  -0.36633
 Alpha  occ. eigenvalues --   -0.35622  -0.34125  -0.33700  -0.33390  -0.32712
 Alpha  occ. eigenvalues --   -0.32281  -0.32033  -0.31704  -0.30863  -0.30583
 Alpha  occ. eigenvalues --   -0.29131  -0.28085  -0.27170  -0.26593  -0.26054
 Alpha  occ. eigenvalues --   -0.25161  -0.23774  -0.23687  -0.22795  -0.21867
 Alpha  occ. eigenvalues --   -0.21459  -0.19909  -0.17902  -0.17414  -0.16161
 Alpha  occ. eigenvalues --   -0.15615  -0.14761  -0.08635  -0.04830  -0.04407
 Alpha virt. eigenvalues --    0.07974   0.09193   0.09443   0.14825   0.15229
 Alpha virt. eigenvalues --    0.16222   0.17977   0.19862   0.21380   0.22082
 Alpha virt. eigenvalues --    0.22295   0.23398   0.23705   0.24029   0.24658

 Mulliken charges:
               1
     1  O   -0.365589
     2  O   -0.408294
     3  O   -0.233234
     4  C   -0.022037
     5  C    0.394774
     6  C   -0.236088
     7  C    0.094297
     8  C    0.348351
     9  C   -0.037245
    10  C    0.290807
    11  H   -0.073363
    12  H   -0.074052
    13  H   -0.080649
    14  H    0.242922
    15  H   -0.039310
    16  H   -0.053646
    17  H   -0.060398
    18  H   -0.023056
    19  H   -0.015718
    20  H   -0.049854
    21  O   -0.342942
    22  C    0.317359
    23  C   -0.065824
    24  C   -0.229783
    25  C    0.174401
    26  C   -0.063480
    27  C    0.090396
    28  C    0.080959
    29  C    0.058202
    30  C    0.090721
    31  C    0.103776
    32  H   -0.109135
    33  H   -0.042758
    34  H   -0.044558
    35  H   -0.081207
    36  H   -0.086576
    37  H   -0.105351
    38  H   -0.078225
    39  Cl  -0.154706
    40  H   -0.109888
 Sum of Mulliken charges =  -1.00000

 Dipole moment (field-independent basis, Debye):
    X=              5.6833    Y=            -10.3301    Z=             -0.4116  Tot=             11.7975
 Quadrupole moment (field-independent basis, Debye-Ang):
   XX=           -178.5123   YY=           -181.7364   ZZ=           -141.6535
   XY=             19.4118   XZ=             -0.2208   YZ=             12.8183

  Exact polarizability:     229.543      -5.011     175.754      12.410       0.002     158.614
 Approx polarizability:     309.656     -15.644     251.307      19.177     -17.601     275.434

 Summary of Natural Population Analysis:

                                       Natural Population
                Natural  -----------------------------------------------
    Atom  No    Charge         Core      Valence    Rydberg      Total
 -----------------------------------------------------------------------
      O    1   -0.67495      1.99977     6.66607    0.00911     8.67495
      O    2   -0.80014      1.99973     6.79043    0.00998     8.80014
      O    3   -0.57832      1.99970     6.56704    0.01158     8.57832
      C    4    0.47882      1.99890     3.47609    0.04619     5.52118
      C    5   -0.45306      1.99885     4.43142    0.02279     6.45306
      C    6    0.35518      1.99895     3.61811    0.02776     5.64482
      C    7   -0.30931      1.99875     4.28917    0.02140     6.30931
      C    8   -0.55887      1.99907     4.54688    0.01291     6.55887
      C    9    0.63791      1.99935     3.31216    0.05059     5.36209
      C   10   -0.62991      1.99905     4.62051    0.01035     6.62991
      H   11    0.18712      0.00000     0.80903    0.00385     0.81288
      H   12    0.20217      0.00000     0.79097    0.00685     0.79783
      H   13    0.19194      0.00000     0.80232    0.00573     0.80806
      H   14    0.48911      0.00000     0.50571    0.00518     0.51089
      H   15    0.19554      0.00000     0.80075    0.00371     0.80446
      H   16    0.18225      0.00000     0.81376    0.00399     0.81775
      H   17    0.18196      0.00000     0.81560    0.00244     0.81804
      H   18    0.20255      0.00000     0.79450    0.00295     0.79745
      H   19    0.20689      0.00000     0.79033    0.00278     0.79311
      H   20    0.18550      0.00000     0.81219    0.00230     0.81450
      O   21   -0.65517      1.99976     6.64607    0.00934     8.65517
      C   22   -0.61140      1.99907     4.60145    0.01089     6.61140
      C   23    0.51471      1.99906     3.44146    0.04478     5.48529
      C   24   -0.40293      1.99878     4.38137    0.02278     6.40293
      C   25   -0.22399      1.99894     4.20025    0.02480     6.22399
      C   26   -0.00758      1.99900     3.98811    0.02048     6.00758
      C   27   -0.17141      1.99894     4.15730    0.01518     6.17141
      C   28   -0.20536      1.99889     4.19015    0.01632     6.20536
      C   29   -0.02758      1.99862     4.00591    0.02305     6.02758
      C   30   -0.20363      1.99890     4.18841    0.01632     6.20363
      C   31   -0.14828      1.99896     4.13446    0.01486     6.14828
      H   32    0.16314      0.00000     0.83298    0.00388     0.83686
      H   33    0.19124      0.00000     0.80530    0.00345     0.80876
      H   34    0.19450      0.00000     0.80183    0.00367     0.80550
      H   35    0.19793      0.00000     0.79391    0.00816     0.80207
      H   36    0.19077      0.00000     0.80573    0.00350     0.80923
      H   37    0.19004      0.00000     0.80631    0.00365     0.80996
      H   38    0.19743      0.00000     0.79940    0.00317     0.80257
     Cl   39   -0.06428      9.99961     7.04931    0.01537    17.06428
      H   40    0.18947      0.00000     0.80686    0.00367     0.81053
 =======================================================================
   * Total *   -1.00000     51.98064   117.48958    0.52977   170.00000

 ******   27 imaginary frequencies (negative Signs) ******

                      1                      2                      3
                      A                      A                      A
 Frequencies --  -1498.1717             -1494.8244             -1469.9934
 Red. masses --      1.0093                 1.0088                 1.0088
 Frc consts  --      1.3347                 1.3281                 1.2844
 IR Inten    --      0.6886                 0.3429                 0.0229

                      4                      5                      6
                      A                      A                      A
 Frequencies --  -1296.5550             -1217.7383             -1184.9150
 Red. masses --      1.0254                 1.0678                 1.0475
 Frc consts  --      1.0156                 0.9329                 0.8665
 IR Inten    --      2.3284                49.7898                 2.5579

                      7                      8                      9
                      A                      A                      A
 Frequencies --  -1175.0490             -1163.6730             -1131.2431
 Red. masses --      1.0411                 1.0473                 1.0384
 Frc consts  --      0.8469                 0.8356                 0.7829
 IR Inten    --      0.7003                 4.4970                 1.8615

                     10                     11                     12
                      A                      A                      A
 Frequencies --  -1126.4708             -1117.9276             -1096.3499
 Red. masses --      1.0372                 1.0500                 1.0424
 Frc consts  --      0.7755                 0.7732                 0.7382
 IR Inten    --      1.6487                 0.8647                 3.6361

                     13                     14                     15
                      A                      A                      A
 Frequencies --  -1029.7635             -1014.4665              -811.6268
 Red. masses --      1.0139                 1.0347                 1.1334
 Frc consts  --      0.6334                 0.6274                 0.4399
 IR Inten    --      0.7369                 0.2396                 3.8783

                     16                     17                     18
                      A                      A                      A
 Frequencies --   -754.8179              -742.2930              -681.3993
 Red. masses --      1.1261                 1.0963                 1.1687
 Frc consts  --      0.3780                 0.3559                 0.3197
 IR Inten    --      2.9054                12.2404                 2.7045

                     19                     20                     21
                      A                      A                      A
 Frequencies --   -637.5697              -614.4302              -580.5026
 Red. masses --      1.2103                 1.2794                 1.0616
 Frc consts  --      0.2899                 0.2846                 0.2108
 IR Inten    --      2.9367                 0.1344                18.2857

                     22                     23                     24
                      A                      A                      A
 Frequencies --   -549.5049              -483.5652              -435.2233
 Red. masses --      1.2738                 1.2290                 1.1931
 Frc consts  --      0.2266                 0.1693                 0.1332
 IR Inten    --      0.5647                 2.9773                29.7540

                     25                     26                     27
                      A                      A                      A
 Frequencies --   -382.1115              -337.3205              -322.3023
 Red. masses --      1.1606                 1.1572                 1.0382
 Frc consts  --      0.0998                 0.0776                 0.0635
 IR Inten    --     35.2265                33.2815                10.0884

                     28                     29                     30
                      A                      A                      A
 Frequencies --     50.4419                85.8451               123.7599
 Red. masses --     10.4086                13.9419                 9.9275
 Frc consts  --      0.0156                 0.0605                 0.0896
 IR Inten    --      0.4343                 4.8375                 1.7813

                     31                     32                     33
                      A                      A                      A
 Frequencies --    136.1167               159.5425               167.4377
 Red. masses --      9.2422                 6.8899                 8.3307
 Frc consts  --      0.1009                 0.1033                 0.1376
 IR Inten    --      3.6094                 0.3403                 0.7163

                     34                     35                     36
                      A                      A                      A
 Frequencies --    177.9948               199.0808               209.0236
 Red. masses --      7.1963                 6.9205                 8.7335
 Frc consts  --      0.1343                 0.1616                 0.2248
 IR Inten    --      0.5719                 0.9138                 2.2593

                     37                     38                     39
                      A                      A                      A
 Frequencies --    220.7283               244.0806               276.8665
 Red. masses --      6.8984                 6.8863                 7.3072
 Frc consts  --      0.1980                 0.2417                 0.3300
 IR Inten    --      2.3082                 2.0995                 1.0705

                     40                     41                     42
                      A                      A                      A
 Frequencies --    295.4565               342.5824               350.6243
 Red. masses --      6.1603                 7.6187                 8.6216
 Frc consts  --      0.3168                 0.5268                 0.6245
 IR Inten    --      0.3231                 1.3197                 1.1181

                     43                     44                     45
                      A                      A                      A
 Frequencies --    399.8303               421.2247               436.3690
 Red. masses --      5.7359                 6.1508                 5.8027
 Frc consts  --      0.5403                 0.6430                 0.6510
 IR Inten    --      0.0425                 7.6996                 0.9211

                     46                     47                     48
                      A                      A                      A
 Frequencies --    462.9845               497.8668               511.6723
 Red. masses --      5.8869                 6.4284                 8.6588
 Frc consts  --      0.7435                 0.9388                 1.3356
 IR Inten    --     12.4425                 6.6558                23.7075

                     49                     50                     51
                      A                      A                      A
 Frequencies --    539.5928               544.9382               581.8242
 Red. masses --      5.2587                10.8491                 7.3943
 Frc consts  --      0.9021                 1.8982                 1.4748
 IR Inten    --     11.0649                 0.6361                 1.1123

                     52                     53                     54
                      A                      A                      A
 Frequencies --    586.9699               602.8635               646.1261
 Red. masses --      3.5411                 5.5972                 3.9572
 Frc consts  --      0.7188                 1.1986                 0.9734
 IR Inten    --     13.1472                 2.6792                20.6405

                     55                     56                     57
                      A                      A                      A
 Frequencies --    651.0378               654.3129               686.2614
 Red. masses --      3.1912                 1.9032                 3.9506
 Frc consts  --      0.7969                 0.4801                 1.0962
 IR Inten    --     23.0791                25.2142                 2.9784

                     58                     59                     60
                      A                      A                      A
 Frequencies --    711.0687               727.0984               748.8723
 Red. masses --      3.4234                 3.9824                 2.2113
 Frc consts  --      1.0198                 1.2405                 0.7307
 IR Inten    --      2.4384                 1.7294                26.1708

                     61                     62                     63
                      A                      A                      A
 Frequencies --    766.2812               778.8714               786.5087
 Red. masses --      3.4636                 3.4525                 2.8332
 Frc consts  --      1.1983                 1.2340                 1.0326
 IR Inten    --      6.6965                 3.6242                 0.6704

                     64                     65                     66
                      A                      A                      A
 Frequencies --    811.3937               833.1945               855.6527
 Red. masses --      3.6599                 3.9046                 1.3617
 Frc consts  --      1.4197                 1.5970                 0.5874
 IR Inten    --      0.9144                 0.6062                22.9718

                     67                     68                     69
                      A                      A                      A
 Frequencies --    868.0597               874.7660               885.1453
 Red. masses --      2.4952                 3.7926                 1.4771
 Frc consts  --      1.1078                 1.7099                 0.6818
 IR Inten    --     10.3677                 0.4909                24.1233

                     70                     71                     72
                      A                      A                      A
 Frequencies --    895.3355               902.0641               937.8569
 Red. masses --      1.5778                 1.2892                 3.7192
 Frc consts  --      0.7452                 0.6181                 1.9274
 IR Inten    --      3.5180                29.4391                53.4192

                     73                     74                     75
                      A                      A                      A
 Frequencies --    971.7442               997.2133              1007.8490
 Red. masses --      1.8434                 3.3409                 3.4628
 Frc consts  --      1.0256                 1.9574                 2.0724
 IR Inten    --      2.3646                 4.1789                 3.6671

                     76                     77                     78
                      A                      A                      A
 Frequencies --   1021.0874              1079.6401              1117.6547
 Red. masses --      5.3761                 7.5397                 4.3512
 Frc consts  --      3.3025                 5.1780                 3.2024
 IR Inten    --      3.7200                46.8588                 9.5540

                     79                     80                     81
                      A                      A                      A
 Frequencies --   1126.3809              1175.7887              1202.1480
 Red. masses --      1.1908                 4.3077                 6.8566
 Frc consts  --      0.8902                 3.5088                 5.8381
 IR Inten    --    119.4484                58.0938                 4.7230

                     82                     83                     84
                      A                      A                      A
 Frequencies --   1220.1584              1237.4906              1240.1449
 Red. masses --      7.4462                 6.3847                 7.0214
 Frc consts  --      6.5316                 5.7607                 6.3624
 IR Inten    --     25.6195                19.5581                29.7715

                     85                     86                     87
                      A                      A                      A
 Frequencies --   1272.5990              1360.1116              1365.9800
 Red. masses --      5.7781                 9.2037                 9.7366
 Frc consts  --      5.5133                10.0314                10.7040
 IR Inten    --    106.5097                12.9889                51.9155

                     88                     89                     90
                      A                      A                      A
 Frequencies --   1466.5254              1472.1539              1497.7763
 Red. masses --      9.0890                 8.4083                 8.3172
 Frc consts  --     11.5171                10.7365                10.9931
 IR Inten    --     57.5048                50.7488                 6.9960

                     91                     92                     93
                      A                      A                      A
 Frequencies --   1511.6972              1607.9264              1643.9699
 Red. masses --      1.3673                10.1988                11.5003
 Frc consts  --      1.8410                15.5358                18.3125
 IR Inten    --    223.7366               572.9625                 9.4551

                     94                     95                     96
                      A                      A                      A
 Frequencies --   1665.4061              1756.3559              1909.1912
 Red. masses --     10.4701                10.1342                12.2776
 Frc consts  --     17.1097                18.4190                26.3672
 IR Inten    --    437.5110                 1.7492               148.5567

                     97                     98                     99
                      A                      A                      A
 Frequencies --   2238.5411              4591.8370              4594.2392
 Red. masses --      1.0634                 1.0337                 1.0324
 Frc consts  --      3.1395                12.8419                12.8387
 IR Inten    --     60.6702                 5.3571                 0.4381

                    100                    101                    102
                      A                      A                      A
 Frequencies --   4600.0530              4665.4577              4723.3528
 Red. masses --      1.0324                 1.0583                 1.0868
 Frc consts  --     12.8718                13.5720                14.2857
 IR Inten    --     10.0443                 6.5481                 3.1325

                    103                    104                    105
                      A                      A                      A
 Frequencies --   4730.2774              4746.4853              4756.4420
 Red. masses --      1.0864                 1.0890                 1.0883
 Frc consts  --     14.3223                14.4555                14.5067
 IR Inten    --      1.6649                 0.0858                 0.4689

                    106                    107                    108
                      A                      A                      A
 Frequencies --   4763.4827              4765.9537              4788.7867
 Red. masses --      1.0906                 1.0914                 1.1054
 Frc consts  --     14.5799                14.6059                14.9362
 IR Inten    --      0.1277                 1.1462                 1.2974

                    109                    110                    111
                      A                      A                      A
 Frequencies --   4802.4210              4805.7983              4811.2422
 Red. masses --      1.1067                 1.1065                 1.1099
 Frc consts  --     15.0384                15.0569                15.1377
 IR Inten    --      4.7919                 1.6862                 2.3829

                    112                    113                    114
                      A                      A                      A
 Frequencies --   4821.7078              4840.0963              4849.9780
 Red. masses --      1.1063                 1.1062                 1.1047
 Frc consts  --     15.1540                15.2683                15.3097
 IR Inten    --      0.1690                 3.7604                 8.2463

 - Thermochemistry -
 -------------------
 Temperature   298.150 Kelvin.  Pressure   1.00000 Atm.
 Atom     1 has atomic number  8 and mass  15.99491

 Molecular mass:   321.08936 amu.
 Principal axes and moments of inertia in atomic units:
                           1         2         3
     Eigenvalues --  4972.863949483.40415**********
           X            0.99958   0.02615   0.01272
           Y           -0.02654   0.99915   0.03163
           Z           -0.01188  -0.03195   0.99942
 This molecule is an asymmetric top.
 Rotational symmetry number  1.
 Warning -- assumption of classical behavior for rotation
           may cause significant error
 Rotational temperatures (Kelvin)      0.01742     0.00913     0.00715
 Rotational constants (GHZ):           0.36292     0.19031     0.14894
   27 imaginary frequencies ignored.
 Zero-point vibrational energy     828227.2 (Joules/Mol)
                                  197.95104 (Kcal/Mol)
 Warning -- explicit consideration of  26 degrees of freedom as
           vibrations may cause significant error
 Vibrational temperatures:     72.57   123.51   178.06   195.84   229.55
          (Kelvin)            240.91   256.09   286.43   300.74   317.58
                              351.18   398.35   425.10   492.90   504.47
                              575.27   606.05   627.84   666.13   716.32
                              736.18   776.35   784.04   837.12   844.52
                              867.39   929.63   936.70   941.41   987.38
                             1023.07  1046.13  1077.46  1102.51  1120.62
                             1131.61  1167.41  1198.78  1231.09  1248.94
                             1258.59  1273.53  1288.19  1297.87  1349.37
                             1398.12  1434.77  1450.07  1469.12  1553.36
                             1608.06  1620.61  1691.70  1729.62  1755.54
                             1780.47  1784.29  1830.99  1956.90  1965.34
                             2110.00  2118.10  2154.97  2175.00  2313.45
                             2365.31  2396.15  2527.00  2746.90  3220.76
                             6606.63  6610.09  6618.45  6712.55  6795.85
                             6805.81  6829.13  6843.46  6853.59  6857.14
                             6890.00  6909.61  6914.47  6922.30  6937.36
                             6963.82  6978.04

 Zero-point correction=                           0.315455 (Hartree/Particle)
 Thermal correction to Energy=                    0.331255
 Thermal correction to Enthalpy=                  0.332199
 Thermal correction to Gibbs Free Energy=         0.272569
 Sum of electronic and zero-point Energies=          -1417.107547
 Sum of electronic and thermal Energies=             -1417.091747
 Sum of electronic and thermal Enthalpies=           -1417.090803
 Sum of electronic and thermal Free Energies=        -1417.150433

                     E (Thermal)             CV                S
                      KCal/Mol        Cal/Mol-Kelvin    Cal/Mol-Kelvin
 Total                  207.866             63.862            125.501
 Electronic               0.000              0.000              0.000
 Translational            0.889              2.981             43.195
 Rotational               0.889              2.981             34.701
 Vibrational            206.088             57.900             47.605
 Vibration     1          0.595              1.977              4.800
 Vibration     2          0.601              1.959              3.753
 Vibration     3          0.610              1.929              3.041
 Vibration     4          0.614              1.917              2.858
 Vibration     5          0.621              1.892              2.555
 Vibration     6          0.624              1.883              2.464
 Vibration     7          0.628              1.869              2.349
 Vibration     8          0.637              1.841              2.142
 Vibration     9          0.642              1.827              2.052
 Vibration    10          0.647              1.810              1.953
 Vibration    11          0.659              1.773              1.773
 Vibration    12          0.678              1.716              1.553
 Vibration    13          0.690              1.682              1.443
 Vibration    14          0.722              1.590              1.200
 Vibration    15          0.728              1.574              1.163
 Vibration    16          0.766              1.470              0.963
 Vibration    17          0.784              1.424              0.888
 Vibration    18          0.797              1.391              0.838
 Vibration    19          0.821              1.332              0.757
 Vibration    20          0.853              1.255              0.663
 Vibration    21          0.867              1.224              0.630
 Vibration    22          0.895              1.163              0.566
 Vibration    23          0.900              1.151              0.555
 Vibration    24          0.939              1.071              0.482
 Vibration    25          0.944              1.060              0.473
 Vibration    26          0.961              1.026              0.445

 Normal termination of Gaussian 16 at Mon Mar  6 11:57:47 2023.
