 Gaussian 16, Revision C.01,
 Gaussian 16:  ES64L-G16RevC.01  3-Jul-2019

 ----------------------------------------------------------------------
 #p pop=(regular,nbo,savenbos) freq=noraman def2svp empiricaldispersion
 =gd3bj output=wfx pbe1pbe
 ----------------------------------------------------------------------

 ----------------------------------------
 TOGPOU_Complex_0_Ligand_1_OO_Cu_oriented
 ----------------------------------------
 Symbolic Z-matrix:
 Charge = -1 Multiplicity = 1

                         Standard orientation:
 ---------------------------------------------------------------------
 Center     Atomic      Atomic             Coordinates (Angstroms)
 Number     Number       Type             X           Y           Z
 ---------------------------------------------------------------------
      1          8           0        1.081794    3.813488    0.367268
      2          6           0       -0.112056    2.596136    1.945836
      3          6           0        0.759148    2.642208    0.713624
      4          6           0        1.174438    1.459103    0.057190
      5          6           0        0.553721    0.132983    0.499810
      6          6           0       -0.948901    0.084184    0.227210
      7          6           0       -1.834666   -0.376898    1.178382
      8          6           0       -3.193839   -0.490044    0.896671
      9          6           0       -3.651145   -0.110507   -0.323714
     10          6           0       -2.814736    0.384642   -1.276707
     11          6           0       -1.449542    0.481903   -1.007081
     12          1           0       -0.327725    1.697989    2.145856
     13          1           0        0.354816    2.987924    2.674416
     14          1           0       -0.910784    3.089537    1.783275
     15          1           0        0.679798    0.058980    1.438644
     16          1           0       -1.514550   -0.621442    2.039540
     17          1           0       -3.159840    0.666652   -2.116557
     18          1           0       -0.859759    0.821718   -1.671088
     19          8           0        2.712416    2.555749   -1.406340
     20          8           0        3.401779   -0.691287    0.847474
     21          8           0        0.850542   -2.384635    1.851949
     22          6           0        2.189517    1.511623   -0.885628
     23          6           0        2.844560    0.228566   -1.352925
     24          6           0        2.706575   -0.942954   -0.392613
     25          6           0        1.183693   -1.116678   -0.156637
     26          6           0        3.367169   -2.162504   -0.997550
     27          6           0        0.894522   -2.377428    0.651840
     28          6           0        0.654079   -3.651305   -0.116885
     29          1           0        2.448990   -0.024519   -2.178431
     30          1           0        3.769708    0.398674   -1.481488
     31          1           0        0.778025   -1.225270   -1.009575
     32          1           0        2.995779    0.195408    1.362355
     33          1           0        4.287276   -1.978736   -1.148546
     34          1           0        3.284887   -2.894671   -0.398380
     35          1           0        2.943392   -2.371043   -1.817441
     36          1           0        1.304076   -4.296383    0.131165
     37          1           0       -0.214117   -3.980815    0.083831
     38          1           0        0.717870   -3.475219   -1.048544
     39         17           0       -5.358208   -0.254319   -0.681613
     40          1           0       -3.795777   -0.830062    1.550641
 ---------------------------------------------------------------------

 SCF Done:  E(RPBE1PBE) =  -1417.42300124     A.U. after   16 cycles

 The electronic state is 1-A.
 Alpha  occ. eigenvalues -- -101.59163 -19.09830 -19.09135 -18.98437 -18.97996
 Alpha  occ. eigenvalues --  -10.21688 -10.19212 -10.17792 -10.13908 -10.13628
 Alpha  occ. eigenvalues --  -10.13533 -10.12858 -10.12797 -10.12777 -10.12391
 Alpha  occ. eigenvalues --  -10.11909 -10.11231 -10.10592 -10.08637 -10.06268
 Alpha  occ. eigenvalues --  -10.05179 -10.04307  -9.44377  -7.18482  -7.17538
 Alpha  occ. eigenvalues --   -7.17525  -0.96553  -0.89266  -0.83872  -0.82707
 Alpha  occ. eigenvalues --   -0.81777  -0.77337  -0.74010  -0.70523  -0.69795
 Alpha  occ. eigenvalues --   -0.69064  -0.65327  -0.64290  -0.63180  -0.60564
 Alpha  occ. eigenvalues --   -0.56465  -0.54467  -0.51481  -0.49050  -0.46436
 Alpha  occ. eigenvalues --   -0.44586  -0.44051  -0.41410  -0.40903  -0.40559
 Alpha  occ. eigenvalues --   -0.39909  -0.38221  -0.37853  -0.37097  -0.36633
 Alpha  occ. eigenvalues --   -0.35622  -0.34125  -0.33700  -0.33390  -0.32712
 Alpha  occ. eigenvalues --   -0.32281  -0.32033  -0.31704  -0.30863  -0.30583
 Alpha  occ. eigenvalues --   -0.29131  -0.28085  -0.27170  -0.26593  -0.26054
 Alpha  occ. eigenvalues --   -0.25161  -0.23774  -0.23687  -0.22795  -0.21867
 Alpha  occ. eigenvalues --   -0.21459  -0.19909  -0.17902  -0.17414  -0.16161
 Alpha  occ. eigenvalues --   -0.15615  -0.14761  -0.08635  -0.04830  -0.04407
 Alpha virt. eigenvalues --    0.07974   0.09193   0.09443   0.14825   0.15229
 Alpha virt. eigenvalues --    0.16222   0.17977   0.19862   0.21380   0.22082
 Alpha virt. eigenvalues --    0.22295   0.23398   0.23705   0.24029   0.24658

 Mulliken charges:
               1
     1  O   -0.342942
     2  C    0.317360
     3  C   -0.065824
     4  C   -0.229783
     5  C    0.174401
     6  C   -0.063480
     7  C    0.090394
     8  C    0.080959
     9  C    0.058202
    10  C    0.090721
    11  C    0.103776
    12  H   -0.109135
    13  H   -0.042759
    14  H   -0.044558
    15  H   -0.081206
    16  H   -0.086575
    17  H   -0.105352
    18  H   -0.078225
    19  O   -0.365589
    20  O   -0.408294
    21  O   -0.233232
    22  C   -0.022036
    23  C    0.394773
    24  C   -0.236088
    25  C    0.094296
    26  C    0.348352
    27  C   -0.037245
    28  C    0.290806
    29  H   -0.073363
    30  H   -0.074052
    31  H   -0.080649
    32  H    0.242922
    33  H   -0.039310
    34  H   -0.053646
    35  H   -0.060398
    36  H   -0.023056
    37  H   -0.015719
    38  H   -0.049854
    39  Cl  -0.154706
    40  H   -0.109889
 Sum of Mulliken charges =  -1.00000

 Dipole moment (field-independent basis, Debye):
    X=             -5.6833    Y=            -10.3301    Z=             -0.4116  Tot=             11.7975
 Quadrupole moment (field-independent basis, Debye-Ang):
   XX=           -178.5123   YY=           -181.7364   ZZ=           -141.6535
   XY=            -19.4118   XZ=              0.2208   YZ=             12.8183

  Exact polarizability:     229.543       5.011     175.754     -12.410       0.002     158.614
 Approx polarizability:     309.656      15.644     251.307     -19.177     -17.601     275.433

 Summary of Natural Population Analysis:

                                       Natural Population
                Natural  -----------------------------------------------
    Atom  No    Charge         Core      Valence    Rydberg      Total
 -----------------------------------------------------------------------
      O    1   -0.65517      1.99976     6.64607    0.00934     8.65517
      C    2   -0.61140      1.99907     4.60144    0.01089     6.61140
      C    3    0.51471      1.99906     3.44146    0.04478     5.48529
      C    4   -0.40293      1.99878     4.38137    0.02278     6.40293
      C    5   -0.22399      1.99894     4.20025    0.02480     6.22399
      C    6   -0.00758      1.99900     3.98811    0.02048     6.00758
      C    7   -0.17142      1.99894     4.15730    0.01518     6.17142
      C    8   -0.20536      1.99889     4.19015    0.01632     6.20536
      C    9   -0.02758      1.99862     4.00591    0.02305     6.02758
      C   10   -0.20363      1.99890     4.18841    0.01632     6.20363
      C   11   -0.14828      1.99896     4.13446    0.01486     6.14828
      H   12    0.16314      0.00000     0.83298    0.00388     0.83686
      H   13    0.19124      0.00000     0.80531    0.00345     0.80876
      H   14    0.19450      0.00000     0.80183    0.00367     0.80550
      H   15    0.19793      0.00000     0.79391    0.00816     0.80207
      H   16    0.19077      0.00000     0.80573    0.00350     0.80923
      H   17    0.19004      0.00000     0.80631    0.00365     0.80996
      H   18    0.19743      0.00000     0.79940    0.00317     0.80257
      O   19   -0.67495      1.99977     6.66607    0.00911     8.67495
      O   20   -0.80014      1.99973     6.79043    0.00998     8.80014
      O   21   -0.57832      1.99970     6.56704    0.01158     8.57832
      C   22    0.47882      1.99890     3.47609    0.04619     5.52118
      C   23   -0.45306      1.99885     4.43142    0.02279     6.45306
      C   24    0.35518      1.99895     3.61811    0.02776     5.64482
      C   25   -0.30931      1.99875     4.28917    0.02140     6.30931
      C   26   -0.55887      1.99907     4.54688    0.01291     6.55887
      C   27    0.63791      1.99935     3.31216    0.05059     5.36209
      C   28   -0.62991      1.99905     4.62051    0.01035     6.62991
      H   29    0.18712      0.00000     0.80903    0.00385     0.81288
      H   30    0.20217      0.00000     0.79097    0.00685     0.79783
      H   31    0.19194      0.00000     0.80232    0.00573     0.80806
      H   32    0.48911      0.00000     0.50571    0.00518     0.51089
      H   33    0.19554      0.00000     0.80075    0.00371     0.80446
      H   34    0.18225      0.00000     0.81376    0.00399     0.81775
      H   35    0.18196      0.00000     0.81560    0.00244     0.81804
      H   36    0.20255      0.00000     0.79450    0.00295     0.79745
      H   37    0.20689      0.00000     0.79033    0.00278     0.79311
      H   38    0.18550      0.00000     0.81219    0.00230     0.81450
     Cl   39   -0.06428      9.99961     7.04931    0.01537    17.06428
      H   40    0.18947      0.00000     0.80686    0.00367     0.81053
 =======================================================================
   * Total *   -1.00000     51.98064   117.48958    0.52977   170.00000

 ******   27 imaginary frequencies (negative Signs) ******

                      1                      2                      3
                      A                      A                      A
 Frequencies --  -1498.1721             -1494.8306             -1469.9967
 Red. masses --      1.0093                 1.0088                 1.0088
 Frc consts  --      1.3347                 1.3281                 1.2844
 IR Inten    --      0.6887                 0.3429                 0.0229

                      4                      5                      6
                      A                      A                      A
 Frequencies --  -1296.5568             -1217.7374             -1184.9158
 Red. masses --      1.0254                 1.0678                 1.0475
 Frc consts  --      1.0156                 0.9329                 0.8665
 IR Inten    --      2.3283                49.7890                 2.5579

                      7                      8                      9
                      A                      A                      A
 Frequencies --  -1175.0478             -1163.6822             -1131.2484
 Red. masses --      1.0411                 1.0473                 1.0384
 Frc consts  --      0.8469                 0.8356                 0.7829
 IR Inten    --      0.7013                 4.4969                 1.8618

                     10                     11                     12
                      A                      A                      A
 Frequencies --  -1126.4769             -1117.9286             -1096.3506
 Red. masses --      1.0372                 1.0500                 1.0424
 Frc consts  --      0.7755                 0.7732                 0.7382
 IR Inten    --      1.6484                 0.8649                 3.6362

                     13                     14                     15
                      A                      A                      A
 Frequencies --  -1029.7603             -1014.4666              -811.6345
 Red. masses --      1.0139                 1.0347                 1.1334
 Frc consts  --      0.6334                 0.6274                 0.4399
 IR Inten    --      0.7371                 0.2393                 3.8780

                     16                     17                     18
                      A                      A                      A
 Frequencies --   -754.8132              -742.2903              -681.4014
 Red. masses --      1.1261                 1.0963                 1.1687
 Frc consts  --      0.3780                 0.3559                 0.3197
 IR Inten    --      2.9054                12.2409                 2.7043

                     19                     20                     21
                      A                      A                      A
 Frequencies --   -637.5720              -614.4298              -580.4948
 Red. masses --      1.2103                 1.2794                 1.0617
 Frc consts  --      0.2899                 0.2846                 0.2108
 IR Inten    --      2.9372                 0.1346                18.2853

                     22                     23                     24
                      A                      A                      A
 Frequencies --   -549.5011              -483.5633              -435.2424
 Red. masses --      1.2738                 1.2290                 1.1931
 Frc consts  --      0.2266                 0.1693                 0.1332
 IR Inten    --      0.5645                 2.9777                29.7535

                     25                     26                     27
                      A                      A                      A
 Frequencies --   -382.1149              -337.3268              -322.2953
 Red. masses --      1.1606                 1.1572                 1.0382
 Frc consts  --      0.0998                 0.0776                 0.0635
 IR Inten    --     35.2264                33.2819                10.0882

                     28                     29                     30
                      A                      A                      A
 Frequencies --     50.4415                85.8407               123.7596
 Red. masses --     10.4087                13.9418                 9.9275
 Frc consts  --      0.0156                 0.0605                 0.0896
 IR Inten    --      0.4342                 4.8377                 1.7813

                     31                     32                     33
                      A                      A                      A
 Frequencies --    136.1165               159.5419               167.4370
 Red. masses --      9.2422                 6.8899                 8.3306
 Frc consts  --      0.1009                 0.1033                 0.1376
 IR Inten    --      3.6093                 0.3403                 0.7163

                     34                     35                     36
                      A                      A                      A
 Frequencies --    177.9940               199.0806               209.0236
 Red. masses --      7.1964                 6.9205                 8.7335
 Frc consts  --      0.1343                 0.1616                 0.2248
 IR Inten    --      0.5718                 0.9137                 2.2592

                     37                     38                     39
                      A                      A                      A
 Frequencies --    220.7281               244.0806               276.8662
 Red. masses --      6.8984                 6.8863                 7.3072
 Frc consts  --      0.1980                 0.2417                 0.3300
 IR Inten    --      2.3082                 2.0995                 1.0705

                     40                     41                     42
                      A                      A                      A
 Frequencies --    295.4573               342.5824               350.6244
 Red. masses --      6.1603                 7.6187                 8.6216
 Frc consts  --      0.3168                 0.5268                 0.6245
 IR Inten    --      0.3231                 1.3197                 1.1181

                     43                     44                     45
                      A                      A                      A
 Frequencies --    399.8303               421.2245               436.3688
 Red. masses --      5.7358                 6.1508                 5.8026
 Frc consts  --      0.5403                 0.6430                 0.6510
 IR Inten    --      0.0425                 7.6996                 0.9210

                     46                     47                     48
                      A                      A                      A
 Frequencies --    462.9842               497.8668               511.6724
 Red. masses --      5.8869                 6.4283                 8.6588
 Frc consts  --      0.7435                 0.9388                 1.3356
 IR Inten    --     12.4426                 6.6556                23.7071

                     49                     50                     51
                      A                      A                      A
 Frequencies --    539.5922               544.9385               581.8243
 Red. masses --      5.2587                10.8492                 7.3943
 Frc consts  --      0.9021                 1.8982                 1.4748
 IR Inten    --     11.0652                 0.6360                 1.1125

                     52                     53                     54
                      A                      A                      A
 Frequencies --    586.9694               602.8634               646.1253
 Red. masses --      3.5410                 5.5972                 3.9571
 Frc consts  --      0.7188                 1.1985                 0.9733
 IR Inten    --     13.1462                 2.6793                20.6435

                     55                     56                     57
                      A                      A                      A
 Frequencies --    651.0362               654.3118               686.2604
 Red. masses --      3.1902                 1.9036                 3.9504
 Frc consts  --      0.7967                 0.4802                 1.0962
 IR Inten    --     23.0806                25.2111                 2.9786

                     58                     59                     60
                      A                      A                      A
 Frequencies --    711.0681               727.0975               748.8707
 Red. masses --      3.4233                 3.9824                 2.2113
 Frc consts  --      1.0198                 1.2405                 0.7307
 IR Inten    --      2.4385                 1.7295                26.1711

                     61                     62                     63
                      A                      A                      A
 Frequencies --    766.2804               778.8709               786.5077
 Red. masses --      3.4635                 3.4522                 2.8333
 Frc consts  --      1.1982                 1.2339                 1.0326
 IR Inten    --      6.6967                 3.6240                 0.6701

                     64                     65                     66
                      A                      A                      A
 Frequencies --    811.3933               833.1934               855.6500
 Red. masses --      3.6598                 3.9044                 1.3617
 Frc consts  --      1.4196                 1.5970                 0.5874
 IR Inten    --      0.9146                 0.6062                22.9719

                     67                     68                     69
                      A                      A                      A
 Frequencies --    868.0590               874.7654               885.1404
 Red. masses --      2.4953                 3.7924                 1.4772
 Frc consts  --      1.1078                 1.7098                 0.6819
 IR Inten    --     10.3672                 0.4907                24.1215

                     70                     71                     72
                      A                      A                      A
 Frequencies --    895.3354               902.0642               937.8567
 Red. masses --      1.5778                 1.2892                 3.7192
 Frc consts  --      0.7452                 0.6181                 1.9274
 IR Inten    --      3.5191                29.4392                53.4191

                     73                     74                     75
                      A                      A                      A
 Frequencies --    971.7418               997.2128              1007.8487
 Red. masses --      1.8434                 3.3409                 3.4629
 Frc consts  --      1.0256                 1.9574                 2.0724
 IR Inten    --      2.3647                 4.1790                 3.6673

                     76                     77                     78
                      A                      A                      A
 Frequencies --   1021.0869              1079.6402              1117.6547
 Red. masses --      5.3761                 7.5397                 4.3513
 Frc consts  --      3.3025                 5.1780                 3.2025
 IR Inten    --      3.7201                46.8590                 9.5538

                     79                     80                     81
                      A                      A                      A
 Frequencies --   1126.3814              1175.7885              1202.1482
 Red. masses --      1.1908                 4.3077                 6.8567
 Frc consts  --      0.8901                 3.5087                 5.8382
 IR Inten    --    119.4489                58.0937                 4.7228

                     82                     83                     84
                      A                      A                      A
 Frequencies --   1220.1584              1237.4905              1240.1444
 Red. masses --      7.4462                 6.3847                 7.0214
 Frc consts  --      6.5316                 5.7607                 6.3624
 IR Inten    --     25.6209                19.5589                29.7729

                     85                     86                     87
                      A                      A                      A
 Frequencies --   1272.5989              1360.1107              1365.9796
 Red. masses --      5.7780                 9.2036                 9.7366
 Frc consts  --      5.5133                10.0313                10.7040
 IR Inten    --    106.5062                12.9850                51.9187

                     88                     89                     90
                      A                      A                      A
 Frequencies --   1466.5252              1472.1539              1497.7769
 Red. masses --      9.0890                 8.4083                 8.3172
 Frc consts  --     11.5172                10.7366                10.9931
 IR Inten    --     57.5006                50.7496                 6.9969

                     91                     92                     93
                      A                      A                      A
 Frequencies --   1511.6972              1607.9273              1643.9698
 Red. masses --      1.3673                10.1988                11.5003
 Frc consts  --      1.8410                15.5358                18.3125
 IR Inten    --    223.7374               572.9633                 9.4556

                     94                     95                     96
                      A                      A                      A
 Frequencies --   1665.4053              1756.3564              1909.1983
 Red. masses --     10.4701                10.1342                12.2777
 Frc consts  --     17.1096                18.4190                26.3674
 IR Inten    --    437.5117                 1.7493               148.5571

                     97                     98                     99
                      A                      A                      A
 Frequencies --   2238.5372              4591.8484              4594.2401
 Red. masses --      1.0634                 1.0337                 1.0324
 Frc consts  --      3.1395                12.8420                12.8387
 IR Inten    --     60.6700                 5.3572                 0.4380

                    100                    101                    102
                      A                      A                      A
 Frequencies --   4600.0555              4665.4605              4723.3536
 Red. masses --      1.0324                 1.0583                 1.0868
 Frc consts  --     12.8718                13.5721                14.2857
 IR Inten    --     10.0444                 6.5480                 3.1313

                    103                    104                    105
                      A                      A                      A
 Frequencies --   4730.2715              4746.4853              4756.4468
 Red. masses --      1.0864                 1.0890                 1.0883
 Frc consts  --     14.3222                14.4555                14.5067
 IR Inten    --      1.6661                 0.0858                 0.4695

                    106                    107                    108
                      A                      A                      A
 Frequencies --   4763.4678              4765.9570              4788.8017
 Red. masses --      1.0906                 1.0914                 1.1054
 Frc consts  --     14.5798                14.6059                14.9363
 IR Inten    --      0.1273                 1.1460                 1.2973

                    109                    110                    111
                      A                      A                      A
 Frequencies --   4802.4185              4805.8028              4811.2434
 Red. masses --      1.1067                 1.1065                 1.1099
 Frc consts  --     15.0384                15.0570                15.1377
 IR Inten    --      4.7920                 1.6864                 2.3831

                    112                    113                    114
                      A                      A                      A
 Frequencies --   4821.7047              4840.1081              4849.9812
 Red. masses --      1.1063                 1.1062                 1.1047
 Frc consts  --     15.1540                15.2684                15.3098
 IR Inten    --      0.1688                 3.7602                 8.2462

 - Thermochemistry -
 -------------------
 Temperature   298.150 Kelvin.  Pressure   1.00000 Atm.
 Atom     1 has atomic number  8 and mass  15.99491

 Molecular mass:   321.08936 amu.
 Principal axes and moments of inertia in atomic units:
                           1         2         3
     Eigenvalues --  4972.864299483.40381**********
           X            0.99958  -0.02615  -0.01272
           Y            0.02654   0.99915   0.03163
           Z            0.01188  -0.03195   0.99942
 This molecule is an asymmetric top.
 Rotational symmetry number  1.
 Warning -- assumption of classical behavior for rotation
           may cause significant error
 Rotational temperatures (Kelvin)      0.01742     0.00913     0.00715
 Rotational constants (GHZ):           0.36292     0.19031     0.14894
   27 imaginary frequencies ignored.
 Zero-point vibrational energy     828227.2 (Joules/Mol)
                                  197.95105 (Kcal/Mol)
 Warning -- explicit consideration of  26 degrees of freedom as
           vibrations may cause significant error
 Vibrational temperatures:     72.57   123.51   178.06   195.84   229.55
          (Kelvin)            240.90   256.09   286.43   300.74   317.58
                              351.18   398.35   425.10   492.90   504.47
                              575.27   606.05   627.84   666.13   716.32
                              736.18   776.35   784.04   837.12   844.52
                              867.39   929.63   936.70   941.41   987.38
                             1023.07  1046.13  1077.46  1102.51  1120.62
                             1131.61  1167.41  1198.78  1231.09  1248.94
                             1258.59  1273.52  1288.19  1297.87  1349.37
                             1398.12  1434.77  1450.07  1469.12  1553.36
                             1608.06  1620.61  1691.70  1729.62  1755.54
                             1780.47  1784.29  1830.99  1956.90  1965.34
                             2110.00  2118.10  2154.97  2175.00  2313.45
                             2365.31  2396.15  2527.01  2746.91  3220.76
                             6606.65  6610.09  6618.45  6712.56  6795.85
                             6805.81  6829.13  6843.47  6853.57  6857.15
                             6890.02  6909.61  6914.48  6922.31  6937.36
                             6963.84  6978.04

 Zero-point correction=                           0.315455 (Hartree/Particle)
 Thermal correction to Energy=                    0.331255
 Thermal correction to Enthalpy=                  0.332199
 Thermal correction to Gibbs Free Energy=         0.272569
 Sum of electronic and zero-point Energies=          -1417.107546
 Sum of electronic and thermal Energies=             -1417.091746
 Sum of electronic and thermal Enthalpies=           -1417.090802
 Sum of electronic and thermal Free Energies=        -1417.150432

                     E (Thermal)             CV                S
                      KCal/Mol        Cal/Mol-Kelvin    Cal/Mol-Kelvin
 Total                  207.866             63.862            125.501
 Electronic               0.000              0.000              0.000
 Translational            0.889              2.981             43.195
 Rotational               0.889              2.981             34.701
 Vibrational            206.088             57.900             47.605
 Vibration     1          0.595              1.977              4.800
 Vibration     2          0.601              1.959              3.753
 Vibration     3          0.610              1.929              3.041
 Vibration     4          0.614              1.917              2.858
 Vibration     5          0.621              1.892              2.555
 Vibration     6          0.624              1.883              2.464
 Vibration     7          0.628              1.869              2.349
 Vibration     8          0.637              1.841              2.142
 Vibration     9          0.642              1.827              2.052
 Vibration    10          0.647              1.810              1.953
 Vibration    11          0.659              1.773              1.773
 Vibration    12          0.678              1.716              1.553
 Vibration    13          0.690              1.682              1.443
 Vibration    14          0.722              1.590              1.200
 Vibration    15          0.728              1.574              1.163
 Vibration    16          0.766              1.470              0.963
 Vibration    17          0.784              1.424              0.888
 Vibration    18          0.797              1.391              0.838
 Vibration    19          0.821              1.332              0.757
 Vibration    20          0.853              1.255              0.663
 Vibration    21          0.867              1.224              0.630
 Vibration    22          0.895              1.163              0.566
 Vibration    23          0.900              1.151              0.555
 Vibration    24          0.939              1.071              0.482
 Vibration    25          0.944              1.060              0.473
 Vibration    26          0.961              1.026              0.445

 Normal termination of Gaussian 16 at Mon Mar  6 12:00:34 2023.
