 Gaussian 16, Revision C.01,
 Gaussian 16:  ES64L-G16RevC.01  3-Jul-2019

 ----------------------------------------------------------------------
 #p pop=(regular,nbo,savenbos) freq=noraman def2svp empiricaldispersion
 =gd3bj output=wfx pbe1pbe
 ----------------------------------------------------------------------

 ----------------------------------------
 TULZIK_Complex_0_Ligand_1_NN_Cu_oriented
 ----------------------------------------
 Symbolic Z-matrix:
 Charge = -1 Multiplicity = 1

                         Standard orientation:
 ---------------------------------------------------------------------
 Center     Atomic      Atomic             Coordinates (Angstroms)
 Number     Number       Type             X           Y           Z
 ---------------------------------------------------------------------
      1          7           0       -1.208262    0.135429   -0.681167
      2          7           0        1.401594    1.013643    0.458554
      3          6           0       -1.161191    1.361607   -1.183307
      4          6           0       -0.102579    2.259903   -0.962916
      5          6           0        1.131781    2.060960   -0.308976
      6          6           0        2.173132    3.134145   -0.581204
      7          1           0        2.487593    3.507496    0.269064
      8          1           0        1.773975    3.845890   -1.123604
      9          1           0        2.929324    2.739710   -1.064921
     10          6           0       -2.316191   -0.746521   -1.087072
     11          1           0       -2.635817   -0.450376   -1.987627
     12          6           0       -1.782999   -2.176422   -1.215507
     13          1           0       -1.022101   -2.187197   -1.832015
     14          1           0       -2.492169   -2.759559   -1.559431
     15          6           0        3.513249   -0.293015    0.480090
     16          6           0        4.788110   -0.596504    0.978393
     17          1           0        5.130990   -0.096977    1.710385
     18          6           0        5.556454   -1.604011    0.432255
     19          1           0        6.421488   -1.781323    0.782809
     20          6           0        5.073585   -2.356082   -0.620124
     21          1           0        5.605646   -3.043261   -1.005625
     22          6           0        3.809797   -2.096613   -1.104180
     23          1           0        3.461073   -2.623056   -1.814109
     24          6           0        3.038908   -1.070142   -0.565109
     25          1           0        2.173538   -0.899714   -0.918701
     26          6           0        2.754630    0.902202    1.034755
     27          1           0        3.257677    1.721307    0.759586
     28          6           0       -3.488590   -0.651030   -0.107920
     29          6           0       -3.513873    0.287642    0.902417
     30          1           0       -2.805015    0.917591    0.972709
     31          6           0       -4.562866    0.327506    1.823648
     32          6           0       -5.591397   -0.583029    1.735213
     33          1           0       -6.290350   -0.578777    2.378767
     34          6           0       -5.602943   -1.493366    0.714798
     35          1           0       -6.324908   -2.104125    0.639439
     36          6           0       -4.564057   -1.534542   -0.218771
     37          1           0       -4.590469   -2.164729   -0.929401
     38          6           0       -2.262542    1.878202   -2.099076
     39          1           0       -3.135162    1.717028   -1.683034
     40          1           0       -2.219470    1.409896   -2.959237
     41          1           0       -2.141462    2.839845   -2.244739
     42          6           0        2.674587    0.916911    2.559514
     43          1           0        2.239751    1.743789    2.856492
     44          1           0        3.578972    0.870393    2.935474
     45          1           0        2.153791    0.145844    2.866305
     46          1           0       -1.494684   -2.497558   -0.336489
     47          1           0       -4.566286    0.982917    2.511427
     48          1           0       -0.239285    3.134644   -1.306763
 ---------------------------------------------------------------------

 SCF Done:  E(RPBE1PBE) =  -922.720741412     A.U. after   14 cycles

 The electronic state is 1-A.
 Alpha  occ. eigenvalues --  -14.17134 -14.16863 -10.11550 -10.11461 -10.11258
 Alpha  occ. eigenvalues --  -10.11040 -10.10944 -10.10889 -10.10861 -10.10804
 Alpha  occ. eigenvalues --  -10.10599 -10.10532 -10.10491 -10.10482 -10.09644
 Alpha  occ. eigenvalues --  -10.09417 -10.09283 -10.09264 -10.06229 -10.05854
 Alpha  occ. eigenvalues --  -10.05541 -10.05372 -10.00672  -0.77534  -0.77262
 Alpha  occ. eigenvalues --   -0.75146  -0.74391  -0.68327  -0.67359  -0.66102
 Alpha  occ. eigenvalues --   -0.65978  -0.64122  -0.63708  -0.61130  -0.60617
 Alpha  occ. eigenvalues --   -0.56846  -0.53775  -0.52915  -0.52833  -0.52438
 Alpha  occ. eigenvalues --   -0.49019  -0.47940  -0.44600  -0.44004  -0.41230
 Alpha  occ. eigenvalues --   -0.38672  -0.38508  -0.38228  -0.36432  -0.35248
 Alpha  occ. eigenvalues --   -0.35134  -0.34318  -0.33960  -0.33745  -0.33424
 Alpha  occ. eigenvalues --   -0.31766  -0.31547  -0.31062  -0.30588  -0.30150
 Alpha  occ. eigenvalues --   -0.29460  -0.29381  -0.28595  -0.27839  -0.27480
 Alpha  occ. eigenvalues --   -0.26804  -0.25433  -0.25228  -0.25047  -0.24283
 Alpha  occ. eigenvalues --   -0.23324  -0.23105  -0.20836  -0.20763  -0.16238
 Alpha  occ. eigenvalues --   -0.15373  -0.15300  -0.14694  -0.14218  -0.11133
 Alpha  occ. eigenvalues --   -0.08271  -0.04759  -0.00747
 Alpha virt. eigenvalues --    0.10502   0.11001   0.11690   0.11721   0.16922
 Alpha virt. eigenvalues --    0.19170   0.19401   0.20556   0.20642   0.22093
 Alpha virt. eigenvalues --    0.22415   0.22989   0.23828   0.24471   0.24755

 Mulliken charges:
               1
     1  N   -0.319057
     2  N   -0.307287
     3  C   -0.152958
     4  C   -0.013860
     5  C   -0.146637
     6  C    0.215614
     7  H   -0.023873
     8  H   -0.061772
     9  H   -0.009179
    10  C    0.105149
    11  H   -0.056365
    12  C    0.206903
    13  H   -0.028814
    14  H   -0.060171
    15  C   -0.020045
    16  C    0.038984
    17  H   -0.115967
    18  C    0.070017
    19  H   -0.107453
    20  C    0.063924
    21  H   -0.104841
    22  C    0.074898
    23  H   -0.096176
    24  C    0.077447
    25  H   -0.078161
    26  C    0.109625
    27  H   -0.063558
    28  C   -0.050243
    29  C    0.080729
    30  H   -0.069589
    31  C    0.073080
    32  C    0.069052
    33  H   -0.105198
    34  C    0.070299
    35  H   -0.106866
    36  C    0.043435
    37  H   -0.115619
    38  C    0.229740
    39  H   -0.035697
    40  H   -0.015411
    41  H   -0.056805
    42  C    0.186881
    43  H   -0.036164
    44  H   -0.056281
    45  H   -0.018565
    46  H   -0.019084
    47  H   -0.098344
    48  H   -0.165736
 Sum of Mulliken charges =  -1.00000

 Dipole moment (field-independent basis, Debye):
    X=             -0.1241    Y=             -1.4528    Z=              0.0124  Tot=              1.4582
 Quadrupole moment (field-independent basis, Debye-Ang):
   XX=           -173.6304   YY=           -148.9201   ZZ=           -143.2990
   XY=              1.6400   XZ=              0.9325   YZ=              5.6721

  Exact polarizability:     309.275       7.838     217.400       9.455      18.368     192.765
 Approx polarizability:     382.123      16.586     329.987      21.619      41.119     304.116

 Summary of Natural Population Analysis:

                                       Natural Population
                Natural  -----------------------------------------------
    Atom  No    Charge         Core      Valence    Rydberg      Total
 -----------------------------------------------------------------------
      N    1   -0.64458      1.99930     5.62613    0.01915     7.64458
      N    2   -0.63254      1.99930     5.61440    0.01885     7.63254
      C    3    0.26775      1.99909     3.70693    0.02624     5.73225
      C    4   -0.46753      1.99887     4.44486    0.02380     6.46753
      C    5    0.27560      1.99910     3.69918    0.02612     5.72440
      C    6   -0.62638      1.99916     4.61761    0.00961     6.62638
      H    7    0.18609      0.00000     0.81053    0.00339     0.81391
      H    8    0.19320      0.00000     0.80401    0.00279     0.80680
      H    9    0.19611      0.00000     0.80114    0.00275     0.80389
      C   10   -0.02537      1.99896     4.00429    0.02212     6.02537
      H   11    0.17263      0.00000     0.81980    0.00757     0.82737
      C   12   -0.54840      1.99916     4.53832    0.01091     6.54840
      H   13    0.19460      0.00000     0.80129    0.00411     0.80540
      H   14    0.16639      0.00000     0.83033    0.00328     0.83361
      C   15   -0.00735      1.99897     3.98912    0.01926     6.00735
      C   16   -0.19615      1.99901     4.18270    0.01445     6.19615
      H   17    0.17059      0.00000     0.82609    0.00332     0.82941
      C   18   -0.19515      1.99910     4.18160    0.01445     6.19515
      H   19    0.16616      0.00000     0.83056    0.00329     0.83384
      C   20   -0.21246      1.99911     4.19899    0.01437     6.21246
      H   21    0.16634      0.00000     0.83045    0.00321     0.83366
      C   22   -0.18047      1.99910     4.16697    0.01440     6.18047
      H   23    0.16966      0.00000     0.82720    0.00314     0.83034
      C   24   -0.16242      1.99896     4.14764    0.01582     6.16242
      H   25    0.20615      0.00000     0.78701    0.00684     0.79385
      C   26   -0.02582      1.99892     4.00458    0.02232     6.02582
      H   27    0.17401      0.00000     0.81800    0.00799     0.82599
      C   28   -0.01482      1.99898     3.99700    0.01885     6.01482
      C   29   -0.17050      1.99895     4.15558    0.01597     6.17050
      H   30    0.20480      0.00000     0.79093    0.00427     0.79520
      C   31   -0.17662      1.99911     4.16296    0.01456     6.17662
      C   32   -0.21377      1.99910     4.20030    0.01437     6.21377
      H   33    0.16709      0.00000     0.82962    0.00328     0.83291
      C   34   -0.19182      1.99911     4.17816    0.01456     6.19182
      H   35    0.16542      0.00000     0.83128    0.00329     0.83458
      C   36   -0.19254      1.99901     4.17896    0.01457     6.19254
      H   37    0.17238      0.00000     0.82442    0.00320     0.82762
      C   38   -0.62152      1.99916     4.61278    0.00957     6.62152
      H   39    0.19155      0.00000     0.80538    0.00307     0.80845
      H   40    0.19161      0.00000     0.80577    0.00262     0.80839
      H   41    0.19132      0.00000     0.80590    0.00278     0.80868
      C   42   -0.55342      1.99916     4.54318    0.01108     6.55342
      H   43    0.19125      0.00000     0.80525    0.00349     0.80875
      H   44    0.16833      0.00000     0.82827    0.00340     0.83167
      H   45    0.19228      0.00000     0.80263    0.00508     0.80772
      H   46    0.19304      0.00000     0.80238    0.00458     0.80696
      H   47    0.16951      0.00000     0.82739    0.00309     0.83049
      H   48    0.15581      0.00000     0.84072    0.00347     0.84419
 =======================================================================
   * Total *   -1.00000     45.97871   119.53857    0.48272   166.00000

 ******   37 imaginary frequencies (negative Signs) ******

                      1                      2                      3
                      A                      A                      A
 Frequencies --  -1298.3187             -1282.2125             -1276.3904
 Red. masses --      1.0808                 1.0810                 1.0823
 Frc consts  --      1.0733                 1.0471                 1.0389
 IR Inten    --     32.5370                69.8714                67.1286

                      4                      5                      6
                      A                      A                      A
 Frequencies --  -1235.0712             -1234.1943             -1232.1186
 Red. masses --      1.0084                 1.0093                 1.0086
 Frc consts  --      0.9063                 0.9058                 0.9022
 IR Inten    --      0.1906                 0.3324                 0.3588

                      7                      8                      9
                      A                      A                      A
 Frequencies --  -1226.0672             -1174.8152             -1169.2366
 Red. masses --      1.0089                 1.0343                 1.0422
 Frc consts  --      0.8936                 0.8411                 0.8394
 IR Inten    --      0.4747                 0.4169                 0.0098

                     10                     11                     12
                      A                      A                      A
 Frequencies --  -1116.3707             -1107.4284             -1040.9450
 Red. masses --      1.0252                 1.0247                 1.0139
 Frc consts  --      0.7528                 0.7404                 0.6473
 IR Inten    --      1.0492                 1.1456                 0.0838

                     13                     14                     15
                      A                      A                      A
 Frequencies --  -1026.5999              -961.8300              -951.4125
 Red. masses --      1.0134                 1.0328                 1.0328
 Frc consts  --      0.6293                 0.5630                 0.5508
 IR Inten    --      0.0701                 0.3399                 0.7599

                     16                     17                     18
                      A                      A                      A
 Frequencies --   -872.1990              -864.8826              -840.6689
 Red. masses --      1.0683                 1.0716                 1.0579
 Frc consts  --      0.4788                 0.4723                 0.4405
 IR Inten    --      1.4425                 7.2239                10.1152

                     19                     20                     21
                      A                      A                      A
 Frequencies --   -837.9843              -815.4461              -809.4848
 Red. masses --      1.0580                 1.0557                 1.0545
 Frc consts  --      0.4377                 0.4136                 0.4071
 IR Inten    --      8.6688                 9.2138                 0.9261

                     22                     23                     24
                      A                      A                      A
 Frequencies --   -805.3862              -804.2795              -675.6628
 Red. masses --      1.0483                 1.0641                 1.0993
 Frc consts  --      0.4006                 0.4056                 0.2957
 IR Inten    --      3.2851                 9.8282                 0.2540

                     25                     26                     27
                      A                      A                      A
 Frequencies --   -672.3804              -653.6664              -643.1774
 Red. masses --      1.1006                 1.2254                 1.2337
 Frc consts  --      0.2932                 0.3085                 0.3007
 IR Inten    --      1.1418                 5.0754                 3.6117

                     28                     29                     30
                      A                      A                      A
 Frequencies --   -588.6409              -585.8896              -484.9198
 Red. masses --      1.2307                 1.2214                 1.1939
 Frc consts  --      0.2512                 0.2470                 0.1654
 IR Inten    --      4.9797                 2.8545                 9.2427

                     31                     32                     33
                      A                      A                      A
 Frequencies --   -482.1020              -394.0960              -340.1034
 Red. masses --      1.1815                 1.5728                 1.0490
 Frc consts  --      0.1618                 0.1439                 0.0715
 IR Inten    --      6.9183                 3.5359                37.3567

                     34                     35                     36
                      A                      A                      A
 Frequencies --   -323.9391              -200.4400              -186.0246
 Red. masses --      1.0462                 2.7108                 2.7495
 Frc consts  --      0.0647                 0.0642                 0.0561
 IR Inten    --     27.8378                 0.6878                 0.6410

                     37                     38                     39
                      A                      A                      A
 Frequencies --    -48.9225               111.9922               144.2161
 Red. masses --      5.7173                 5.6431                 6.2723
 Frc consts  --      0.0081                 0.0417                 0.0769
 IR Inten    --      1.0954                 0.2464                 0.1931

                     40                     41                     42
                      A                      A                      A
 Frequencies --    170.8848               184.8122               193.3137
 Red. masses --      5.2591                 6.8129                 6.1694
 Frc consts  --      0.0905                 0.1371                 0.1358
 IR Inten    --      0.7274                 0.5964                 1.1960

                     43                     44                     45
                      A                      A                      A
 Frequencies --    208.2012               213.7005               236.7402
 Red. masses --      8.4793                 6.9531                 5.1624
 Frc consts  --      0.2166                 0.1871                 0.1705
 IR Inten    --      0.2928                 1.3667                 0.5084

                     46                     47                     48
                      A                      A                      A
 Frequencies --    304.7050               325.1918               355.3348
 Red. masses --      4.0247                 3.9149                 5.3254
 Frc consts  --      0.2202                 0.2439                 0.3962
 IR Inten    --      2.4066                 5.4893                 5.7167

                     49                     50                     51
                      A                      A                      A
 Frequencies --    407.7405               427.7388               456.7782
 Red. masses --      6.3588                 4.7378                 4.9856
 Frc consts  --      0.6229                 0.5107                 0.6129
 IR Inten    --      0.3446                 0.6938                 1.4484

                     52                     53                     54
                      A                      A                      A
 Frequencies --    488.0738               498.2808               499.3919
 Red. masses --      4.5179                 3.1113                 4.6688
 Frc consts  --      0.6341                 0.4551                 0.6860
 IR Inten    --      5.6601                 2.8425                 0.2645

                     55                     56                     57
                      A                      A                      A
 Frequencies --    516.7909               548.7078               551.1038
 Red. masses --      3.7489                 5.3205                 6.2366
 Frc consts  --      0.5899                 0.9438                 1.1160
 IR Inten    --      1.5410                 0.4519                 0.6685

                     58                     59                     60
                      A                      A                      A
 Frequencies --    556.8533               586.0400               645.1665
 Red. masses --      7.6655                 2.1513                 1.1781
 Frc consts  --      1.4005                 0.4353                 0.2889
 IR Inten    --      0.1970                 3.9983                20.1078

                     61                     62                     63
                      A                      A                      A
 Frequencies --    650.3389               676.8331               678.5860
 Red. masses --      1.2839                 4.2370                 4.0787
 Frc consts  --      0.3199                 1.1436                 1.1066
 IR Inten    --     10.3842                 1.4448                 2.8983

                     64                     65                     66
                      A                      A                      A
 Frequencies --    689.0010               690.1189               695.1157
 Red. masses --      1.3662                 3.0244                 1.2461
 Frc consts  --      0.3821                 0.8487                 0.3547
 IR Inten    --     16.9140                 1.3189                17.1175

                     67                     68                     69
                      A                      A                      A
 Frequencies --    724.6882               736.9783               755.1783
 Red. masses --      4.1035                 4.2282                 4.6336
 Frc consts  --      1.2697                 1.3530                 1.5569
 IR Inten    --      0.2144                 0.4836                13.1373

                     70                     71                     72
                      A                      A                      A
 Frequencies --    775.9206               780.3394               795.8235
 Red. masses --      3.3763                 3.5400                 5.5188
 Frc consts  --      1.1977                 1.2700                 2.0593
 IR Inten    --      1.6980                 0.8286                 0.9517

                     73                     74                     75
                      A                      A                      A
 Frequencies --    814.6876               821.0955               826.4920
 Red. masses --      6.0639                 4.2184                 4.0368
 Frc consts  --      2.3713                 1.6757                 1.6247
 IR Inten    --     13.1609                10.6429                28.8748

                     76                     77                     78
                      A                      A                      A
 Frequencies --    886.0167               900.4871               901.9998
 Red. masses --      3.0135                 2.2765                 2.5031
 Frc consts  --      1.3938                 1.0876                 1.1999
 IR Inten    --     31.0292                35.0093                11.8216

                     79                     80                     81
                      A                      A                      A
 Frequencies --    910.4782               945.2326               953.7298
 Red. masses --      2.0811                 3.0505                 2.9512
 Frc consts  --      1.0164                 1.6058                 1.5816
 IR Inten    --     12.4054                18.8805                16.1814

                     82                     83                     84
                      A                      A                      A
 Frequencies --    958.3993               992.5495              1046.4794
 Red. masses --      3.2572                 2.5998                 5.6089
 Frc consts  --      1.7627                 1.5090                 3.6190
 IR Inten    --     45.2706                22.3423                 1.8734

                     85                     86                     87
                      A                      A                      A
 Frequencies --   1048.0949              1056.4512              1068.7377
 Red. masses --      5.7565                 2.8977                 2.6320
 Frc consts  --      3.7257                 1.9055                 1.7712
 IR Inten    --      0.9508                90.5191                 9.4309

                     88                     89                     90
                      A                      A                      A
 Frequencies --   1088.8810              1100.0527              1108.4626
 Red. masses --      1.1775                 1.2356                 1.4541
 Frc consts  --      0.8226                 0.8810                 1.0527
 IR Inten    --      9.3701                 8.2369                 4.6464

                     91                     92                     93
                      A                      A                      A
 Frequencies --   1109.8829              1123.8210              1124.8897
 Red. masses --      1.7473                 1.3606                 1.1757
 Frc consts  --      1.2682                 1.0125                 0.8765
 IR Inten    --     13.7256                50.6059                 6.2204

                     94                     95                     96
                      A                      A                      A
 Frequencies --   1125.8861              1131.0455              1143.4177
 Red. masses --      1.4620                 1.7865                 1.3112
 Frc consts  --      1.0919                 1.3465                 1.0100
 IR Inten    --     38.4861                 2.3210                 5.1020

                     97                     98                     99
                      A                      A                      A
 Frequencies --   1148.5810              1210.1626              1228.0156
 Red. masses --      1.6021                 5.1575                 5.4282
 Frc consts  --      1.2452                 4.4501                 4.8230
 IR Inten    --      5.7292                 1.1314                 2.5705

                    100                    101                    102
                      A                      A                      A
 Frequencies --   1326.3245              1352.8909              1390.6218
 Red. masses --      8.0132                 8.2231                 7.9931
 Frc consts  --      8.3053                 8.8678                 9.1072
 IR Inten    --     70.2123                 3.7528                 7.4977

                    103                    104                    105
                      A                      A                      A
 Frequencies --   1417.9053              1425.1590              1453.9516
 Red. masses --      8.7304                 8.5032                 8.7182
 Frc consts  --     10.3414                10.1756                10.8587
 IR Inten    --     11.5966                 8.6727                11.6194

                    106                    107                    108
                      A                      A                      A
 Frequencies --   1479.9060              1487.9146              1587.2207
 Red. masses --      8.6346                11.0214                 9.7749
 Frc consts  --     11.1419                14.3762                14.5090
 IR Inten    --     23.0212               101.6023              1615.2772

                    109                    110                    111
                      A                      A                      A
 Frequencies --   1614.1677              1634.3323              1657.6699
 Red. masses --     10.2877                10.7128                10.4798
 Frc consts  --     15.7930                16.8591                16.9668
 IR Inten    --    343.7145                12.9144                 6.8287

                    112                    113                    114
                      A                      A                      A
 Frequencies --   1679.2051              1708.3632              4095.8596
 Red. masses --     10.4130                10.2460                 1.0851
 Frc consts  --     17.2995                17.6184                10.7256
 IR Inten    --      6.8625                 3.0470                40.7434

                    115                    116                    117
                      A                      A                      A
 Frequencies --   4108.1481              4226.9792              4229.0688
 Red. masses --      1.0843                 1.0319                 1.0319
 Frc consts  --     10.7816                10.8634                10.8733
 IR Inten    --     37.0732                29.5128                21.8581

                    118                    119                    120
                      A                      A                      A
 Frequencies --   4233.5478              4239.6157              4414.2531
 Red. masses --      1.0321                 1.0323                 1.1060
 Frc consts  --     10.8986                10.9317                12.6972
 IR Inten    --     24.3516                20.9224                 8.1293

                    121                    122                    123
                      A                      A                      A
 Frequencies --   4418.6452              4418.6533              4421.0386
 Red. masses --      1.1059                 1.1061                 1.1066
 Frc consts  --     12.7214                12.7236                12.7441
 IR Inten    --     21.6486                 8.5380                 9.8364

                    124                    125                    126
                      A                      A                      A
 Frequencies --   4421.1458              4423.8510              4433.6247
 Red. masses --      1.1066                 1.1056                 1.1069
 Frc consts  --     12.7442                12.7478                12.8197
 IR Inten    --     13.6452                21.1387                 4.4938

                    127                    128                    129
                      A                      A                      A
 Frequencies --   4443.8356              4747.2692              4748.1491
 Red. masses --      1.1072                 1.0862                 1.0872
 Frc consts  --     12.8820                14.4232                14.4419
 IR Inten    --      4.5500                 0.4820                14.6033

                    130                    131                    132
                      A                      A                      A
 Frequencies --   4753.7107              4756.7285              4761.6519
 Red. masses --      1.0865                 1.0880                 1.0885
 Frc consts  --     14.4656                14.5037                14.5412
 IR Inten    --      3.0324                 4.2100                 4.0448

                    133                    134                    135
                      A                      A                      A
 Frequencies --   4763.0840              4764.0444              4769.3439
 Red. masses --      1.0889                 1.0892                 1.0916
 Frc consts  --     14.5547                14.5652                14.6291
 IR Inten    --      1.9755                11.6026                 2.8020

                    136                    137                    138
                      A                      A                      A
 Frequencies --   4771.7498              4774.0217              4783.9185
 Red. masses --      1.0914                 1.0922                 1.0918
 Frc consts  --     14.6416                14.6657                14.7221
 IR Inten    --      8.7437                18.0429                14.3073

 - Thermochemistry -
 -------------------
 Temperature   298.150 Kelvin.  Pressure   1.00000 Atm.
 Atom     1 has atomic number  7 and mass  14.00307

 Molecular mass:   305.20177 amu.
 Principal axes and moments of inertia in atomic units:
                           1         2         3
     Eigenvalues --  4193.51606********************
           X            0.99997   0.00485   0.00621
           Y           -0.00495   0.99985   0.01672
           Z           -0.00613  -0.01675   0.99984
 This molecule is an asymmetric top.
 Rotational symmetry number  1.
 Warning -- assumption of classical behavior for rotation
           may cause significant error
 Rotational temperatures (Kelvin)      0.02065     0.00581     0.00540
 Rotational constants (GHZ):           0.43036     0.12102     0.11258
   37 imaginary frequencies ignored.
 Zero-point vibrational energy    1071807.9 (Joules/Mol)
                                  256.16823 (Kcal/Mol)
 Warning -- explicit consideration of  22 degrees of freedom as
           vibrations may cause significant error
 Vibrational temperatures:    161.13   207.49   245.87   265.90   278.14
          (Kelvin)            299.56   307.47   340.62   438.40   467.88
                              511.25   586.65   615.42   657.20   702.23
                              716.91   718.51   743.55   789.47   792.92
                              801.19   843.18   928.25   935.69   973.81
                              976.33   991.32   992.93  1000.12  1042.66
                             1060.35  1086.53  1116.38  1122.73  1145.01
                             1172.15  1181.37  1189.14  1274.78  1295.60
                             1297.78  1309.98  1359.98  1372.20  1378.92
                             1428.06  1505.65  1507.97  1520.00  1537.68
                             1566.66  1582.73  1594.83  1596.87  1616.93
                             1618.47  1619.90  1627.32  1645.12  1652.55
                             1741.15  1766.84  1908.29  1946.51  2000.79
                             2040.05  2050.49  2091.91  2129.25  2140.78
                             2283.66  2322.43  2351.44  2385.02  2416.00
                             2457.95  5893.03  5910.71  6081.68  6084.69
                             6091.13  6099.86  6351.13  6357.44  6357.46
                             6360.89  6361.04  6364.93  6379.00  6393.69
                             6830.26  6831.53  6839.53  6843.87  6850.96
                             6853.02  6854.40  6862.02  6865.48  6868.75
                             6882.99

 Zero-point correction=                           0.408230 (Hartree/Particle)
 Thermal correction to Energy=                    0.421881
 Thermal correction to Enthalpy=                  0.422825
 Thermal correction to Gibbs Free Energy=         0.368321
 Sum of electronic and zero-point Energies=           -922.312511
 Sum of electronic and thermal Energies=              -922.298861
 Sum of electronic and thermal Enthalpies=            -922.297916
 Sum of electronic and thermal Free Energies=         -922.352420

                     E (Thermal)             CV                S
                      KCal/Mol        Cal/Mol-Kelvin    Cal/Mol-Kelvin
 Total                  264.734             60.724            114.713
 Electronic               0.000              0.000              0.000
 Translational            0.889              2.981             43.044
 Rotational               0.889              2.981             35.260
 Vibrational            262.957             54.762             36.409
 Vibration     1          0.607              1.940              3.234
 Vibration     2          0.616              1.909              2.747
 Vibration     3          0.626              1.878              2.426
 Vibration     4          0.631              1.861              2.279
 Vibration     5          0.635              1.849              2.196
 Vibration     6          0.642              1.828              2.059
 Vibration     7          0.644              1.820              2.012
 Vibration     8          0.656              1.784              1.827
 Vibration     9          0.696              1.665              1.391
 Vibration    10          0.709              1.625              1.284
 Vibration    11          0.731              1.564              1.142
 Vibration    12          0.772              1.453              0.935
 Vibration    13          0.789              1.410              0.866
 Vibration    14          0.815              1.346              0.776
 Vibration    15          0.844              1.276              0.689
 Vibration    16          0.854              1.254              0.662
 Vibration    17          0.855              1.251              0.660
 Vibration    18          0.872              1.213              0.617
 Vibration    19          0.904              1.143              0.547
 Vibration    20          0.906              1.137              0.542
 Vibration    21          0.912              1.125              0.530
 Vibration    22          0.943              1.062              0.474

 Normal termination of Gaussian 16 at Mon Mar  6 12:16:50 2023.
