 Gaussian 16, Revision C.01,
 Gaussian 16:  ES64L-G16RevC.01  3-Jul-2019

 ----------------------------------------------------------------------
 #p pop=(regular,nbo,savenbos) freq=noraman def2svp empiricaldispersion
 =gd3bj output=wfx pbe1pbe
 ----------------------------------------------------------------------

 ----------------------------------------
 TUSFET_Complex_0_Ligand_1_ON_Cu_oriented
 ----------------------------------------
 Symbolic Z-matrix:
 Charge = -2 Multiplicity = 1

                         Standard orientation:
 ---------------------------------------------------------------------
 Center     Atomic      Atomic             Coordinates (Angstroms)
 Number     Number       Type             X           Y           Z
 ---------------------------------------------------------------------
      1         16           0        1.697039   -0.105824   -0.001716
      2          8           0       -2.391643   -1.603821   -0.281010
      3          8           0        1.960284    1.268345   -0.348116
      4          8           0        2.559352   -0.558644    1.076353
      5          8           0        1.686364   -1.000194   -1.121503
      6          7           0       -1.222662    1.794297   -0.150120
      7          1           0       -1.240147    2.166859   -0.969347
      8          1           0       -0.541804    2.159365    0.311520
      9          6           0       -2.350031   -0.409924   -0.017204
     10          6           0       -1.022833    0.331409   -0.267998
     11          1           0       -0.737861    0.138598   -1.185549
     12          6           0        0.048112   -0.188714    0.672025
     13          1           0       -0.152119   -1.110870    0.895777
     14          1           0        0.020043    0.327148    1.493767
     15          8           0       -3.313557    0.276238    0.450675
 ---------------------------------------------------------------------

 SCF Done:  E(RPBE1PBE) =  -944.999148331     A.U. after   14 cycles

 The electronic state is 1-A.
 Alpha  occ. eigenvalues --  -88.88353 -18.85033 -18.84695 -18.84260 -18.80796
 Alpha  occ. eigenvalues --  -18.79468 -14.04874  -9.96648  -9.93417  -9.91656
 Alpha  occ. eigenvalues --   -7.85165  -5.79349  -5.79332  -5.79212  -0.83046
 Alpha  occ. eigenvalues --   -0.70503  -0.68040  -0.67048  -0.62855  -0.59805
 Alpha  occ. eigenvalues --   -0.49641  -0.37364  -0.27877  -0.24128  -0.20969
 Alpha  occ. eigenvalues --   -0.19358  -0.17373  -0.15330  -0.14362  -0.12535
 Alpha  occ. eigenvalues --   -0.10735  -0.10074  -0.06815  -0.05018  -0.03431
 Alpha  occ. eigenvalues --   -0.03138   0.00737   0.01264   0.01554   0.03727
 Alpha  occ. eigenvalues --    0.05665   0.08086   0.09222   0.10657
 Alpha virt. eigenvalues --    0.36021   0.39221   0.39483   0.43282   0.44923
 Alpha virt. eigenvalues --    0.45960   0.47255   0.50626   0.51641   0.52562
 Alpha virt. eigenvalues --    0.55449   0.57022   0.60255   0.68806   0.73426

 Mulliken charges:
               1
     1  S    0.847888
     2  O   -0.435264
     3  O   -0.611914
     4  O   -0.630362
     5  O   -0.589374
     6  N   -0.085074
     7  H    0.007925
     8  H    0.003198
     9  C    0.069296
    10  C   -0.031157
    11  H   -0.058794
    12  C    0.085849
    13  H   -0.034013
    14  H   -0.055498
    15  O   -0.482705
 Sum of Mulliken charges =  -2.00000

 Dipole moment (field-independent basis, Debye):
    X=              3.5304    Y=              2.8638    Z=             -0.2380  Tot=              4.5521
 Quadrupole moment (field-independent basis, Debye-Ang):
   XX=           -139.3184   YY=            -82.9764   ZZ=            -72.0204
   XY=             -2.8134   XZ=              2.8085   YZ=             -3.4449

  Exact polarizability:      71.236      -2.769      62.516       0.641       0.822      52.106
 Approx polarizability:      89.086      -7.117      96.617       0.403       5.105      78.946

 Summary of Natural Population Analysis:

                                       Natural Population
                Natural  -----------------------------------------------
    Atom  No    Charge         Core      Valence    Rydberg      Total
 -----------------------------------------------------------------------
      S    1    2.41244      9.99889     3.33001    0.25866    13.58756
      O    2   -0.80857      1.99973     6.79838    0.01046     8.80857
      O    3   -1.06947      1.99976     7.06167    0.00804     9.06947
      O    4   -1.07710      1.99977     7.07001    0.00731     9.07710
      O    5   -1.05653      1.99976     7.04892    0.00785     9.05653
      N    6   -0.81512      1.99942     5.79228    0.02341     7.81512
      H    7    0.30302      0.00000     0.69063    0.00635     0.69698
      H    8    0.31298      0.00000     0.67913    0.00789     0.68702
      C    9    0.78682      1.99944     3.13850    0.07525     5.21318
      C   10   -0.11221      1.99895     4.08823    0.02503     6.11221
      H   11    0.17078      0.00000     0.82066    0.00856     0.82922
      C   12   -0.61517      1.99886     4.59135    0.02495     6.61517
      H   13    0.20800      0.00000     0.78393    0.00807     0.79200
      H   14    0.18059      0.00000     0.81305    0.00637     0.81941
      O   15   -0.82046      1.99976     6.81205    0.00865     8.82046
 =======================================================================
   * Total *   -2.00000     27.99434    59.51880    0.48686    88.00000

 ******   10 imaginary frequencies (negative Signs) ******

                      1                      2                      3
                      A                      A                      A
 Frequencies --  -1590.2153             -1366.9893             -1106.7360
 Red. masses --      1.0402                 1.1316                 1.0342
 Frc consts  --      1.5498                 1.2459                 0.7464
 IR Inten    --     38.0104               192.0970                 3.6946

                      4                      5                      6
                      A                      A                      A
 Frequencies --   -934.9015              -621.5874              -489.7997
 Red. masses --      1.0939                 1.1368                 1.2687
 Frc consts  --      0.5633                 0.2588                 0.1793
 IR Inten    --      2.3236                 0.5227                 5.4764

                      7                      8                      9
                      A                      A                      A
 Frequencies --   -370.3540              -273.6925              -148.2556
 Red. masses --      1.5778                 2.8303                14.6455
 Frc consts  --      0.1275                 0.1249                 0.1897
 IR Inten    --      8.1484                 1.6934                 1.1664

                     10                     11                     12
                      A                      A                      A
 Frequencies --     -7.4234               132.2458               245.1259
 Red. masses --     10.5729                 7.6561                10.3722
 Frc consts  --      0.0003                 0.0789                 0.3672
 IR Inten    --      8.8666                 7.7916                 0.9666

                     13                     14                     15
                      A                      A                      A
 Frequencies --    354.1541               388.9663               447.2247
 Red. masses --      5.9923                 5.3174                 5.7845
 Frc consts  --      0.4428                 0.4740                 0.6817
 IR Inten    --      3.6831                 4.3589                 6.7792

                     16                     17                     18
                      A                      A                      A
 Frequencies --    503.2913               544.6466               605.3436
 Red. masses --      9.3223                 7.2796                 9.1480
 Frc consts  --      1.3913                 1.2723                 1.9751
 IR Inten    --     22.1031                26.7252               174.8687

                     19                     20                     21
                      A                      A                      A
 Frequencies --    620.4268               741.4181               764.6613
 Red. masses --      5.7530                 7.0238                 5.4163
 Frc consts  --      1.3048                 2.2748                 1.8659
 IR Inten    --     11.0754                13.0194                15.1012

                     22                     23                     24
                      A                      A                      A
 Frequencies --    808.6141               857.8000               890.1536
 Red. masses --      2.0921                 2.5037                 6.1599
 Frc consts  --      0.8060                 1.0855                 2.8758
 IR Inten    --     35.8487                18.9699                35.6059

                     25                     26                     27
                      A                      A                      A
 Frequencies --    908.5943               968.8194              1062.0732
 Red. masses --      1.5787                 1.6039                 1.8344
 Frc consts  --      0.7679                 0.8870                 1.2191
 IR Inten    --      7.2047                 4.1734                17.9210

                     28                     29                     30
                      A                      A                      A
 Frequencies --   1157.0681              1196.5011              1199.7339
 Red. masses --      4.4253                 7.0215                15.5814
 Frc consts  --      3.4907                 5.9225                13.2138
 IR Inten    --     10.2311                23.8786               190.3423

                     31                     32                     33
                      A                      A                      A
 Frequencies --   1392.9731              1450.2459              1450.8802
 Red. masses --     19.8251                13.2458                17.3201
 Frc consts  --     22.6648                16.4139                21.4814
 IR Inten    --    334.7661               269.5847               323.2868

                     34                     35                     36
                      A                      A                      A
 Frequencies --   1847.0209              4356.4707              4425.1091
 Red. masses --     12.8026                 1.0867                 1.0605
 Frc consts  --     25.7330                12.1517                12.2351
 IR Inten    --    428.8269                10.9863                12.6665

                     37                     38                     39
                      A                      A                      A
 Frequencies --   4550.4247              5103.5599              5240.1304
 Red. masses --      1.1074                 1.0503                 1.0951
 Frc consts  --     13.5104                16.1183                17.7173
 IR Inten    --      4.1816                 0.8742                 3.7346

 - Thermochemistry -
 -------------------
 Temperature   298.150 Kelvin.  Pressure   1.00000 Atm.
 Atom     1 has atomic number 16 and mass  31.97207

 Molecular mass:   166.98884 amu.
 Principal axes and moments of inertia in atomic units:
                           1         2         3
     Eigenvalues --   736.342272607.843352935.91196
           X            0.99997  -0.00717   0.00302
           Y            0.00723   0.99972  -0.02261
           Z           -0.00286   0.02263   0.99974
 This molecule is an asymmetric top.
 Rotational symmetry number  1.
 Warning -- assumption of classical behavior for rotation
           may cause significant error
 Rotational temperatures (Kelvin)      0.11763     0.03321     0.02950
 Rotational constants (GHZ):           2.45095     0.69204     0.61471
   10 imaginary frequencies ignored.
 Zero-point vibrational energy     264456.5 (Joules/Mol)
                                   63.20662 (Kcal/Mol)
 Warning -- explicit consideration of   9 degrees of freedom as
           vibrations may cause significant error
 Vibrational temperatures:    190.27   352.68   509.55   559.64   643.46
          (Kelvin)            724.12   783.62   870.95   892.66  1066.74
                             1100.18  1163.42  1234.18  1280.73  1307.26
                             1393.92  1528.09  1664.76  1721.50  1726.15
                             2004.18  2086.58  2087.49  2657.45  6267.99
                             6366.75  6547.05  7342.88  7539.38

 Zero-point correction=                           0.100726 (Hartree/Particle)
 Thermal correction to Energy=                    0.106970
 Thermal correction to Enthalpy=                  0.107914
 Thermal correction to Gibbs Free Energy=         0.068687
 Sum of electronic and zero-point Energies=           -944.898422
 Sum of electronic and thermal Energies=              -944.892179
 Sum of electronic and thermal Enthalpies=            -944.891234
 Sum of electronic and thermal Free Energies=         -944.930462

                     E (Thermal)             CV                S
                      KCal/Mol        Cal/Mol-Kelvin    Cal/Mol-Kelvin
 Total                   67.125             23.827             82.561
 Electronic               0.000              0.000              0.000
 Translational            0.889              2.981             41.246
 Rotational               0.889              2.981             30.112
 Vibrational             65.347             17.866             11.202
 Vibration     1          0.612              1.921              2.913
 Vibration     2          0.660              1.771              1.765
 Vibration     3          0.730              1.567              1.148
 Vibration     4          0.757              1.494              1.004
 Vibration     5          0.806              1.367              0.804
 Vibration     6          0.859              1.243              0.650
 Vibration     7          0.900              1.151              0.555
 Vibration     8          0.964              1.020              0.441
 Vibration     9          0.980              0.989              0.416

 Normal termination of Gaussian 16 at Mon Mar  6 10:28:41 2023.
