 Gaussian 16, Revision C.01,
 Gaussian 16:  ES64L-G16RevC.01  3-Jul-2019

 ----------------------------------------------------------------------
 #p pop=(regular,nbo,savenbos) freq=noraman def2svp empiricaldispersion
 =gd3bj output=wfx pbe1pbe
 ----------------------------------------------------------------------

 -----------------------------------------
 TUXQIM_Complex_16_Ligand_0_NN_Cu_oriented
 -----------------------------------------
 Symbolic Z-matrix:
 Charge =  0 Multiplicity = 1

                         Standard orientation:
 ---------------------------------------------------------------------
 Center     Atomic      Atomic             Coordinates (Angstroms)
 Number     Number       Type             X           Y           Z
 ---------------------------------------------------------------------
      1          7           0        1.307606    0.085973    0.666171
      2          7           0       -1.212091   -0.071444   -0.398420
      3          6           0       -2.537228    0.152435   -1.134564
      4          1           0       -2.491091   -0.266448   -2.042477
      5          6           0       -2.544684    1.679257   -1.274800
      6          1           0       -2.657959    1.940257   -2.222930
      7          8           0       -1.217561    2.157014   -0.755224
      8          6           0       -0.618975    1.057989   -0.281626
      9          6           0        0.717693    1.142535    0.292360
     10          8           0        1.317592    2.318537    0.382426
     11          6           0        2.692455    2.025534    0.855614
     12          1           0        2.907874    2.551145    1.664838
     13          1           0        3.358755    2.227632    0.151392
     14          6           0        2.659597    0.522163    1.168361
     15          1           0        2.716584    0.381473    2.157463
     16          6           0       -3.688212   -0.411757   -0.387186
     17          6           0       -4.598415   -1.260326   -1.018421
     18          1           0       -4.473094   -1.487462   -1.932305
     19          6           0        3.723791   -0.306568    0.468895
     20          6           0        3.844261   -0.252960   -0.909951
     21          1           0        3.273505    0.316624   -1.414164
     22          6           0        4.789773   -1.028494   -1.555939
     23          1           0        4.848787   -0.992784   -2.503346
     24          6           0        5.613733   -1.819556   -0.889084
     25          1           0        6.253929   -2.349101   -1.350345
     26          6           0        5.530770   -1.864298    0.504789
     27          1           0        6.126761   -2.420763    0.995004
     28          6           0        4.588509   -1.105813    1.181737
     29          1           0        4.540723   -1.135731    2.130971
     30          6           0       -5.657349   -1.761473   -0.341806
     31          1           0       -6.275979   -2.323471   -0.792099
     32          6           0       -5.853096   -1.472159    0.996843
     33          6           0       -4.970780   -0.646225    1.646374
     34          1           0       -5.087525   -0.454144    2.569734
     35          6           0       -3.909828   -0.090541    0.944817
     36          1           0       -3.325549    0.517560    1.383589
     37          1           0       -6.593667   -1.843558    1.461892
     38          1           0       -3.282992    2.074219   -0.747564
 ---------------------------------------------------------------------

 SCF Done:  E(RPBE1PBE) =  -953.475077713     A.U. after   15 cycles

 The electronic state is 1-A.
 Alpha  occ. eigenvalues --  -19.25655 -19.25381 -14.37265 -14.37256 -10.32503
 Alpha  occ. eigenvalues --  -10.32460 -10.28142 -10.27999 -10.26590 -10.26588
 Alpha  occ. eigenvalues --  -10.23990 -10.23956 -10.22141 -10.22057 -10.22041
 Alpha  occ. eigenvalues --  -10.22011 -10.21932 -10.21878 -10.21825 -10.21702
 Alpha  occ. eigenvalues --  -10.21410 -10.21313  -1.12620  -1.10364  -0.93352
 Alpha  occ. eigenvalues --   -0.91146  -0.88956  -0.88275  -0.83723  -0.80951
 Alpha  occ. eigenvalues --   -0.78153  -0.78032  -0.77071  -0.76064  -0.68667
 Alpha  occ. eigenvalues --   -0.67500  -0.67119  -0.64552  -0.64465  -0.61761
 Alpha  occ. eigenvalues --   -0.61353  -0.56760  -0.56505  -0.56170  -0.54331
 Alpha  occ. eigenvalues --   -0.53199  -0.52116  -0.50050  -0.49348  -0.48677
 Alpha  occ. eigenvalues --   -0.48480  -0.47798  -0.47066  -0.45541  -0.45285
 Alpha  occ. eigenvalues --   -0.44281  -0.43937  -0.43234  -0.42950  -0.41864
 Alpha  occ. eigenvalues --   -0.40357  -0.39739  -0.38559  -0.38138  -0.37812
 Alpha  occ. eigenvalues --   -0.36912  -0.36392  -0.36085  -0.35866  -0.29405
 Alpha  occ. eigenvalues --   -0.28469  -0.27483  -0.27136  -0.26899  -0.26466
 Alpha  occ. eigenvalues --   -0.25943  -0.24893
 Alpha virt. eigenvalues --   -0.03341  -0.00950  -0.00894   0.00052   0.00725
 Alpha virt. eigenvalues --    0.08222   0.08684   0.09097   0.09459   0.10690
 Alpha virt. eigenvalues --    0.10786   0.11347   0.11738   0.12625   0.13565

 Mulliken charges:
               1
     1  N   -0.187532
     2  N   -0.211089
     3  C    0.005117
     4  H   -0.012029
     5  C    0.411216
     6  H    0.007726
     7  O   -0.359714
     8  C    0.161538
     9  C    0.146693
    10  O   -0.348212
    11  C    0.417832
    12  H    0.007916
    13  H   -0.001198
    14  C   -0.014430
    15  H   -0.013162
    16  C    0.010421
    17  C    0.072315
    18  H   -0.097361
    19  C    0.026867
    20  C    0.061323
    21  H   -0.085373
    22  C    0.091314
    23  H   -0.079632
    24  C    0.090622
    25  H   -0.078301
    26  C    0.075824
    27  H   -0.073690
    28  C    0.063668
    29  H   -0.096125
    30  C    0.084661
    31  H   -0.078156
    32  C    0.084395
    33  C    0.085380
    34  H   -0.075696
    35  C    0.066753
    36  H   -0.085002
    37  H   -0.074666
    38  H   -0.000211
 Sum of Mulliken charges =  -0.00000

 Dipole moment (field-independent basis, Debye):
    X=              0.1043    Y=              1.3736    Z=             -0.4275  Tot=              1.4424
 Quadrupole moment (field-independent basis, Debye-Ang):
   XX=           -101.8816   YY=           -128.5339   ZZ=           -111.8630
   XY=              1.1230   XZ=              4.9204   YZ=              2.5960

  Exact polarizability:     241.783       0.175     154.324      -1.129       3.133     166.031
 Approx polarizability:     290.358      -0.058     253.318      -0.067       4.512     279.021

 Summary of Natural Population Analysis:

                                       Natural Population
                Natural  -----------------------------------------------
    Atom  No    Charge         Core      Valence    Rydberg      Total
 -----------------------------------------------------------------------
      N    1   -0.48265      1.99935     5.46716    0.01614     7.48265
      N    2   -0.49043      1.99936     5.47565    0.01541     7.49043
      C    3   -0.06530      1.99891     4.04423    0.02216     6.06530
      H    4    0.20568      0.00000     0.79038    0.00394     0.79432
      C    5   -0.00130      1.99883     3.98694    0.01553     6.00130
      H    6    0.18092      0.00000     0.81632    0.00275     0.81908
      O    7   -0.54995      1.99969     6.54018    0.01008     8.54995
      C    8    0.53547      1.99900     3.42564    0.03989     5.46453
      C    9    0.53068      1.99897     3.42980    0.04055     5.46932
      O   10   -0.54592      1.99967     6.53573    0.01052     8.54592
      C   11   -0.00243      1.99887     3.98763    0.01593     6.00243
      H   12    0.18141      0.00000     0.81593    0.00266     0.81859
      H   13    0.17827      0.00000     0.81873    0.00300     0.82173
      C   14   -0.06418      1.99896     4.04249    0.02273     6.06418
      H   15    0.20359      0.00000     0.79244    0.00397     0.79641
      C   16   -0.04516      1.99898     4.02788    0.01830     6.04516
      C   17   -0.17588      1.99899     4.16170    0.01519     6.17588
      H   18    0.18035      0.00000     0.81646    0.00319     0.81965
      C   19   -0.03680      1.99897     4.01890    0.01894     6.03680
      C   20   -0.17275      1.99900     4.15831    0.01544     6.17275
      H   21    0.18173      0.00000     0.81499    0.00329     0.81827
      C   22   -0.16806      1.99905     4.15452    0.01449     6.16806
      H   23    0.18003      0.00000     0.81669    0.00328     0.81997
      C   24   -0.18197      1.99906     4.16876    0.01415     6.18197
      H   25    0.18087      0.00000     0.81602    0.00311     0.81913
      C   26   -0.15544      1.99912     4.14212    0.01420     6.15544
      H   27    0.17711      0.00000     0.81995    0.00294     0.82289
      C   28   -0.18335      1.99897     4.16945    0.01492     6.18335
      H   29    0.18236      0.00000     0.81457    0.00307     0.81764
      C   30   -0.16893      1.99908     4.15561    0.01424     6.16893
      H   31    0.17938      0.00000     0.81749    0.00312     0.82062
      C   32   -0.17392      1.99911     4.16085    0.01396     6.17392
      C   33   -0.16430      1.99910     4.15118    0.01402     6.16430
      H   34    0.17996      0.00000     0.81704    0.00301     0.82004
      C   35   -0.16945      1.99900     4.15509    0.01536     6.16945
      H   36    0.18314      0.00000     0.81352    0.00334     0.81686
      H   37    0.17829      0.00000     0.81869    0.00301     0.82171
      H   38    0.17891      0.00000     0.81818    0.00292     0.82109
 =======================================================================
   * Total *   -0.00000     43.98005   109.57721    0.44274   154.00000

 ******   26 imaginary frequencies (negative Signs) ******

                      1                      2                      3
                      A                      A                      A
 Frequencies --  -1271.7947             -1263.8195             -1167.5787
 Red. masses --      1.0812                 1.0810                 1.0350
 Frc consts  --      1.0303                 1.0173                 0.8313
 IR Inten    --     74.0137                73.9288                 0.2812

                      4                      5                      6
                      A                      A                      A
 Frequencies --  -1158.8964             -1103.7862             -1098.4514
 Red. masses --      1.0443                 1.0240                 1.0252
 Frc consts  --      0.8264                 0.7351                 0.7288
 IR Inten    --      0.0910                 0.6319                 0.7794

                      7                      8                      9
                      A                      A                      A
 Frequencies --  -1030.1758             -1024.3316              -942.9767
 Red. masses --      1.0109                 1.0112                 1.0286
 Frc consts  --      0.6321                 0.6251                 0.5389
 IR Inten    --      0.1524                 0.0824                 0.2100

                     10                     11                     12
                      A                      A                      A
 Frequencies --   -929.0447              -865.8229              -848.6965
 Red. masses --      1.0268                 1.0596                 1.0653
 Frc consts  --      0.5222                 0.4680                 0.4521
 IR Inten    --      0.2026                 2.8359                 3.1708

                     13                     14                     15
                      A                      A                      A
 Frequencies --   -643.8317              -632.9062              -613.6124
 Red. masses --      1.1240                 1.1798                 1.2461
 Frc consts  --      0.2745                 0.2784                 0.2764
 IR Inten    --      0.0191                 0.2873                 0.1405

                     16                     17                     18
                      A                      A                      A
 Frequencies --   -589.7241              -578.6635              -559.2944
 Red. masses --      1.1911                 1.2633                 1.2718
 Frc consts  --      0.2441                 0.2492                 0.2344
 IR Inten    --      0.3104                 0.8277                 4.5418

                     19                     20                     21
                      A                      A                      A
 Frequencies --   -452.7441              -441.8351              -323.3247
 Red. masses --      1.1974                 1.2593                 2.4179
 Frc consts  --      0.1446                 0.1448                 0.1489
 IR Inten    --      7.8162                14.3628                 0.4540

                     22                     23                     24
                      A                      A                      A
 Frequencies --   -292.5595              -265.1995              -234.9169
 Red. masses --      1.5122                 1.3935                 1.0670
 Frc consts  --      0.0763                 0.0577                 0.0347
 IR Inten    --      8.7435                 9.3972                16.4123

                     25                     26                     27
                      A                      A                      A
 Frequencies --   -194.1808              -180.0741                49.7457
 Red. masses --      3.1349                 2.3614                 7.2616
 Frc consts  --      0.0696                 0.0451                 0.0106
 IR Inten    --      4.5157                 8.3602                 0.3663

                     28                     29                     30
                      A                      A                      A
 Frequencies --     76.7662               124.9100               169.8615
 Red. masses --      5.0623                 7.5679                 6.4416
 Frc consts  --      0.0176                 0.0696                 0.1095
 IR Inten    --      0.4168                 0.6589                 0.8315

                     31                     32                     33
                      A                      A                      A
 Frequencies --    193.0893               206.1142               270.9455
 Red. masses --      6.1287                 7.3523                 6.3858
 Frc consts  --      0.1346                 0.1840                 0.2762
 IR Inten    --      1.2537                 0.9358                 0.4971

                     34                     35                     36
                      A                      A                      A
 Frequencies --    304.6813               355.3330               369.1087
 Red. masses --      5.7174                 4.1216                 3.9830
 Frc consts  --      0.3127                 0.3066                 0.3197
 IR Inten    --      0.0931                 1.9178                 2.7350

                     37                     38                     39
                      A                      A                      A
 Frequencies --    428.2447               465.7436               533.7017
 Red. masses --      4.1935                 7.2949                 6.3153
 Frc consts  --      0.4531                 0.9323                 1.0598
 IR Inten    --      0.5966                 0.5113                 3.0173

                     40                     41                     42
                      A                      A                      A
 Frequencies --    538.5327               544.5815               606.0672
 Red. masses --     11.3907                 5.7496                 3.2399
 Frc consts  --      1.9464                 1.0046                 0.7012
 IR Inten    --      0.3413                 4.0935                11.3400

                     43                     44                     45
                      A                      A                      A
 Frequencies --    611.3458               624.1395               635.3081
 Red. masses --      3.4257                 2.1583                 2.2525
 Frc consts  --      0.7544                 0.4954                 0.5356
 IR Inten    --      6.6436                 5.4902                 6.6087

                     46                     47                     48
                      A                      A                      A
 Frequencies --    663.8122               679.5751               709.8692
 Red. masses --      3.4145                 2.5626                 2.3557
 Frc consts  --      0.8865                 0.6973                 0.6994
 IR Inten    --     28.3101                38.3612                 4.3428

                     49                     50                     51
                      A                      A                      A
 Frequencies --    719.3267               738.1612               743.8270
 Red. masses --      2.9824                 2.2669                 3.8316
 Frc consts  --      0.9092                 0.7277                 1.2490
 IR Inten    --      2.7167                 3.5569                11.7133

                     52                     53                     54
                      A                      A                      A
 Frequencies --    747.6665               769.0628               776.8739
 Red. masses --      2.2976                 3.6270                 3.8682
 Frc consts  --      0.7567                 1.2639                 1.3755
 IR Inten    --      1.0618                 1.3488                 4.9899

                     55                     56                     57
                      A                      A                      A
 Frequencies --    803.8427               809.1596               817.7772
 Red. masses --      5.5177                 7.7780                 2.5337
 Frc consts  --      2.1006                 3.0004                 0.9983
 IR Inten    --      9.8463                 5.5956                14.5155

                     58                     59                     60
                      A                      A                      A
 Frequencies --    828.0321               840.5704               850.2515
 Red. masses --      3.3513                 3.5720                 2.1381
 Frc consts  --      1.3538                 1.4870                 0.9107
 IR Inten    --     13.4375                 7.3327                 5.9573

                     61                     62                     63
                      A                      A                      A
 Frequencies --    874.5554               885.6278               891.7270
 Red. masses --      4.2303                 2.2282                 2.3413
 Frc consts  --      1.9063                 1.0297                 1.0969
 IR Inten    --     25.4662                 3.8755                 3.1392

                     64                     65                     66
                      A                      A                      A
 Frequencies --    907.7276               920.1457               938.9363
 Red. masses --      4.9477                 5.5730                 5.5333
 Frc consts  --      2.4020                 2.7800                 2.8741
 IR Inten    --     29.2650                24.8703                26.1204

                     67                     68                     69
                      A                      A                      A
 Frequencies --    979.0954              1005.0801              1011.4461
 Red. masses --      8.4495                 2.9001                 2.7732
 Frc consts  --      4.7724                 1.7261                 1.6715
 IR Inten    --      6.5868                11.1935                13.7476

                     70                     71                     72
                      A                      A                      A
 Frequencies --   1034.6665              1058.1596              1060.5624
 Red. masses --      5.4366                 5.7364                 5.8743
 Frc consts  --      3.4291                 3.7844                 3.8929
 IR Inten    --      8.2557                 2.1279                 0.6179

                     73                     74                     75
                      A                      A                      A
 Frequencies --   1110.0929              1128.5848              1162.0576
 Red. masses --      8.6619                 3.9279                 1.1115
 Frc consts  --      6.2890                 2.9476                 0.8843
 IR Inten    --      4.0401                 1.2836                 6.4707

                     76                     77                     78
                      A                      A                      A
 Frequencies --   1177.6981              1237.9254              1271.3648
 Red. masses --      1.2656                 7.6478                 7.6954
 Frc consts  --      1.0343                 6.9052                 7.3286
 IR Inten    --     16.7075                 1.2174                 3.7688

                     79                     80                     81
                      A                      A                      A
 Frequencies --   1310.3175              1396.7856              1422.8561
 Red. masses --      7.8259                 8.1111                 8.1637
 Frc consts  --      7.9166                 9.3238                 9.7378
 IR Inten    --    173.9149                 0.4377                 2.4284

                     82                     83                     84
                      A                      A                      A
 Frequencies --   1429.8225              1455.3618              1489.8903
 Red. masses --      7.2259                 8.9792                 9.4383
 Frc consts  --      8.7038                11.2055                12.3439
 IR Inten    --      1.0237                 0.0704                 5.5654

                     85                     86                     87
                      A                      A                      A
 Frequencies --   1528.3644              1560.5969              1663.5210
 Red. masses --     11.2464                 9.0091                10.4415
 Frc consts  --     15.4780                12.9275                17.0243
 IR Inten    --    332.3680                 2.8396                 3.6694

                     88                     89                     90
                      A                      A                      A
 Frequencies --   1684.4357              1721.2082              1730.6641
 Red. masses --      9.8781                12.1002                10.6015
 Frc consts  --     16.5132                21.1207                18.7087
 IR Inten    --      0.0398                46.2604                 5.4199

                     91                     92                     93
                      A                      A                      A
 Frequencies --   1793.5797              1821.0629              4123.1174
 Red. masses --     12.2403                 9.9184                 1.0882
 Frc consts  --     23.1998                19.3795                10.8998
 IR Inten    --     86.6699                 2.6409                 4.6694

                     94                     95                     96
                      A                      A                      A
 Frequencies --   4125.7464              4208.7491              4209.4379
 Red. masses --      1.0883                 1.0593                 1.0594
 Frc consts  --     10.9145                11.0549                11.0596
 IR Inten    --      6.0808                 7.5860                 7.7379

                     97                     98                     99
                      A                      A                      A
 Frequencies --   4328.0149              4331.4737              4747.6756
 Red. masses --      1.1126                 1.1127                 1.0870
 Frc consts  --     12.2786                12.2994                14.4358
 IR Inten    --      2.1195                 2.1300                 0.4418

                    100                    101                    102
                      A                      A                      A
 Frequencies --   4752.2297              4756.4469              4758.9926
 Red. masses --      1.0880                 1.0873                 1.0896
 Frc consts  --     14.4768                14.4926                14.5392
 IR Inten    --      0.3305                 0.6083                 0.1483

                    103                    104                    105
                      A                      A                      A
 Frequencies --   4761.4879              4762.4145              4765.9983
 Red. masses --      1.0876                 1.0908                 1.0894
 Frc consts  --     14.5277                14.5764                14.5790
 IR Inten    --      0.1710                 1.5253                 0.3023

                    106                    107                    108
                      A                      A                      A
 Frequencies --   4774.0783              4774.2857              4782.0874
 Red. masses --      1.0916                 1.0945                 1.0934
 Frc consts  --     14.6592                14.6983                14.7315
 IR Inten    --      0.8744                 1.1297                 1.1688

 - Thermochemistry -
 -------------------
 Temperature   298.150 Kelvin.  Pressure   1.00000 Atm.
 Atom     1 has atomic number  7 and mass  14.00307

 Molecular mass:   292.12118 amu.
 Principal axes and moments of inertia in atomic units:
                           1         2         3
     Eigenvalues --  2834.03336********************
           X            1.00000   0.00004   0.00040
           Y           -0.00004   0.99997   0.00809
           Z           -0.00040  -0.00809   0.99997
 This molecule is an asymmetric top.
 Rotational symmetry number  1.
 Warning -- assumption of classical behavior for rotation
           may cause significant error
 Rotational temperatures (Kelvin)      0.03056     0.00559     0.00528
 Rotational constants (GHZ):           0.63681     0.11646     0.11012
   26 imaginary frequencies ignored.
 Zero-point vibrational energy     790924.1 (Joules/Mol)
                                  189.03540 (Kcal/Mol)
 Warning -- explicit consideration of  17 degrees of freedom as
           vibrations may cause significant error
 Vibrational temperatures:     71.57   110.45   179.72   244.39   277.81
          (Kelvin)            296.55   389.83   438.37   511.24   531.07
                              616.15   670.10   767.88   774.83   783.53
                              872.00   879.59   898.00   914.07   955.08
                              977.76  1021.34  1034.95  1062.05  1070.20
                             1075.73  1106.51  1117.75  1156.55  1164.20
                             1176.60  1191.35  1209.39  1223.32  1258.29
                             1274.22  1283.00  1306.02  1323.88  1350.92
                             1408.70  1446.09  1455.25  1488.65  1522.46
                             1525.91  1597.18  1623.78  1671.94  1694.44
                             1781.10  1829.21  1885.25  2009.66  2047.17
                             2057.20  2093.94  2143.62  2198.98  2245.35
                             2393.44  2423.53  2476.43  2490.04  2580.56
                             2620.10  5932.25  5936.03  6055.45  6056.44
                             6227.05  6232.02  6830.85  6837.40  6843.47
                             6847.13  6850.72  6852.05  6857.21  6868.83
                             6869.13  6880.36

 Zero-point correction=                           0.301247 (Hartree/Particle)
 Thermal correction to Energy=                    0.313459
 Thermal correction to Enthalpy=                  0.314403
 Thermal correction to Gibbs Free Energy=         0.261202
 Sum of electronic and zero-point Energies=           -953.173831
 Sum of electronic and thermal Energies=              -953.161619
 Sum of electronic and thermal Enthalpies=            -953.160675
 Sum of electronic and thermal Free Energies=         -953.213876

                     E (Thermal)             CV                S
                      KCal/Mol        Cal/Mol-Kelvin    Cal/Mol-Kelvin
 Total                  196.698             52.099            111.971
 Electronic               0.000              0.000              0.000
 Translational            0.889              2.981             42.913
 Rotational               0.889              2.981             34.930
 Vibrational            194.921             46.137             34.127
 Vibration     1          0.595              1.978              4.827
 Vibration     2          0.599              1.965              3.972
 Vibration     3          0.610              1.928              3.023
 Vibration     4          0.625              1.880              2.437
 Vibration     5          0.635              1.849              2.198
 Vibration     6          0.641              1.831              2.078
 Vibration     7          0.675              1.727              1.590
 Vibration     8          0.696              1.665              1.391
 Vibration     9          0.731              1.564              1.142
 Vibration    10          0.741              1.536              1.083
 Vibration    11          0.790              1.409              0.864
 Vibration    12          0.823              1.326              0.750
 Vibration    13          0.889              1.175              0.579
 Vibration    14          0.894              1.165              0.568
 Vibration    15          0.900              1.152              0.556
 Vibration    16          0.965              1.019              0.439
 Vibration    17          0.970              1.008              0.431

 Normal termination of Gaussian 16 at Sat Mar  4 12:50:17 2023.
