 Gaussian 16, Revision C.01,
 Gaussian 16:  ES64L-G16RevC.01  3-Jul-2019

 ----------------------------------------------------------------------
 #p pop=(regular,nbo,savenbos) freq=noraman def2svp empiricaldispersion
 =gd3bj output=wfx pbe1pbe
 ----------------------------------------------------------------------

 ----------------------------------------
 TUYHOK_Complex_2_Ligand_0_NN_Cu_oriented
 ----------------------------------------
 Symbolic Z-matrix:
 Charge =  0 Multiplicity = 1

                         Standard orientation:
 ---------------------------------------------------------------------
 Center     Atomic      Atomic             Coordinates (Angstroms)
 Number     Number       Type             X           Y           Z
 ---------------------------------------------------------------------
      1          7           0        0.728101    1.088345   -0.401978
      2          6           0       -0.134469    2.286385   -0.172669
      3          6           0       -1.585170    1.887797   -0.258218
      4          7           0       -1.899653    0.838452    0.740138
      5          6           0       -3.106883    0.088480    0.332425
      6          6           0       -2.619886   -0.991749   -0.663536
      7          7           0       -1.132093   -0.978146   -0.530207
      8          6           0       -0.464143   -2.296754   -0.397140
      9          6           0        1.025984   -2.033725   -0.305955
     10          7           0        1.362505   -1.021191    0.715527
     11          6           0        2.785235   -0.631801    0.657620
     12          6           0        2.156513    1.508183   -0.470780
     13          6           0        0.531562    0.163129    0.770627
     14          6           0       -0.912913   -0.221519    0.751724
     15          1           0        0.063065    2.976836   -0.854186
     16          1           0        0.055571    2.669192    0.720398
     17          1           0       -1.781646    1.548332   -1.167747
     18          1           0       -3.760599    0.691674   -0.101839
     19          1           0       -3.536232   -0.331424    1.119267
     20          1           0       -2.986920   -1.880141   -0.427283
     21          1           0       -2.893495   -0.767388   -1.587754
     22          1           0       -0.665211   -2.864873   -1.182304
     23          1           0       -0.781013   -2.761684    0.416991
     24          1           0        1.490941   -2.880267   -0.087953
     25          1           0        1.353832   -1.725389   -1.187289
     26          1           0        3.342443   -1.446228    0.571213
     27          1           0        0.726390    0.660759    1.616073
     28          1           0       -1.097443   -0.829090    1.523653
     29          6           0        3.079853    0.307211   -0.517501
     30          1           0        4.021484    0.609805   -0.473706
     31          1           0        2.375358    2.060601    0.321400
     32          1           0        2.951433   -0.177600   -1.371335
     33          1           0        2.297604    2.062525   -1.278553
     34          1           0       -2.155890    2.679863   -0.096313
     35          1           0        3.034209   -0.181541    1.503327
 ---------------------------------------------------------------------

 SCF Done:  E(RPBE1PBE) =  -648.803432823     A.U. after   13 cycles

 The electronic state is 1-A.
 Alpha  occ. eigenvalues --  -14.37328 -14.37160 -14.36173 -14.36042 -10.25774
 Alpha  occ. eigenvalues --  -10.25273 -10.22753 -10.22660 -10.22440 -10.22229
 Alpha  occ. eigenvalues --  -10.22211 -10.22128 -10.22034 -10.21961 -10.19725
 Alpha  occ. eigenvalues --   -0.99105  -0.94618  -0.90787  -0.86826  -0.81232
 Alpha  occ. eigenvalues --   -0.78754  -0.76026  -0.74764  -0.67866  -0.66936
 Alpha  occ. eigenvalues --   -0.65944  -0.64172  -0.61825  -0.59019  -0.55614
 Alpha  occ. eigenvalues --   -0.52722  -0.51239  -0.50063  -0.49893  -0.49572
 Alpha  occ. eigenvalues --   -0.48204  -0.46344  -0.45492  -0.44229  -0.43590
 Alpha  occ. eigenvalues --   -0.42814  -0.41583  -0.40727  -0.39858  -0.39746
 Alpha  occ. eigenvalues --   -0.38623  -0.38146  -0.36520  -0.36425  -0.34789
 Alpha  occ. eigenvalues --   -0.34359  -0.33200  -0.31760  -0.23275  -0.22906
 Alpha  occ. eigenvalues --   -0.21434  -0.19867
 Alpha virt. eigenvalues --    0.08014   0.08492   0.10073   0.10663   0.11292
 Alpha virt. eigenvalues --    0.12297   0.12665   0.14069   0.14311   0.14808
 Alpha virt. eigenvalues --    0.14990   0.15449   0.15928   0.16219   0.17687

 Mulliken charges:
               1
     1  N   -0.474663
     2  C    0.187971
     3  C    0.301752
     4  N   -0.447146
     5  C    0.187065
     6  C    0.241343
     7  N   -0.500618
     8  C    0.237757
     9  C    0.260399
    10  N   -0.477046
    11  C    0.214780
    12  C    0.229620
    13  C    0.322026
    14  C    0.198387
    15  H   -0.023093
    16  H   -0.038763
    17  H   -0.028402
    18  H   -0.019277
    19  H   -0.013855
    20  H   -0.031101
    21  H   -0.014315
    22  H   -0.017636
    23  H   -0.043462
    24  H   -0.024491
    25  H   -0.030683
    26  H   -0.020293
    27  H   -0.041140
    28  H   -0.034262
    29  C    0.045142
    30  H   -0.016482
    31  H   -0.053307
    32  H   -0.005519
    33  H   -0.018444
    34  H   -0.025149
    35  H   -0.027095
 Sum of Mulliken charges =  -0.00000

 Dipole moment (field-independent basis, Debye):
    X=              0.1990    Y=             -0.1533    Z=             -0.5306  Tot=              0.5871
 Quadrupole moment (field-independent basis, Debye-Ang):
   XX=            -81.9581   YY=            -84.9151   ZZ=            -94.3115
   XY=              1.7121   XZ=              1.3588   YZ=             -0.2451

  Exact polarizability:     142.881      -0.308     127.356       1.255      -0.001      97.183
 Approx polarizability:     174.701      -1.941     169.913       1.766       0.380     151.690

 Summary of Natural Population Analysis:

                                       Natural Population
                Natural  -----------------------------------------------
    Atom  No    Charge         Core      Valence    Rydberg      Total
 -----------------------------------------------------------------------
      N    1   -0.58511      1.99941     5.57033    0.01537     7.58511
      C    2   -0.16944      1.99909     4.15387    0.01649     6.16944
      C    3   -0.16262      1.99908     4.14593    0.01761     6.16262
      N    4   -0.56048      1.99937     5.54645    0.01466     7.56048
      C    5   -0.16737      1.99914     4.15152    0.01671     6.16737
      C    6   -0.17536      1.99914     4.16201    0.01421     6.17536
      N    7   -0.59149      1.99940     5.57680    0.01529     7.59149
      C    8   -0.15737      1.99910     4.14308    0.01518     6.15737
      C    9   -0.15733      1.99908     4.14108    0.01717     6.15733
      N   10   -0.57115      1.99933     5.55837    0.01344     7.57115
      C   11   -0.15451      1.99910     4.13759    0.01782     6.15451
      C   12   -0.15803      1.99909     4.14244    0.01651     6.15803
      C   13    0.18331      1.99892     3.79147    0.02631     5.81669
      C   14    0.18649      1.99897     3.78740    0.02713     5.81351
      H   15    0.19566      0.00000     0.80129    0.00305     0.80434
      H   16    0.16375      0.00000     0.82930    0.00695     0.83625
      H   17    0.17640      0.00000     0.81809    0.00551     0.82360
      H   18    0.18976      0.00000     0.80741    0.00284     0.81024
      H   19    0.18747      0.00000     0.80960    0.00293     0.81253
      H   20    0.17034      0.00000     0.82515    0.00451     0.82966
      H   21    0.18126      0.00000     0.81563    0.00310     0.81874
      H   22    0.19462      0.00000     0.80253    0.00285     0.80538
      H   23    0.16021      0.00000     0.83310    0.00668     0.83979
      H   24    0.18808      0.00000     0.80881    0.00311     0.81192
      H   25    0.17259      0.00000     0.82173    0.00568     0.82741
      H   26    0.18986      0.00000     0.80709    0.00305     0.81014
      H   27    0.18021      0.00000     0.81224    0.00755     0.81979
      H   28    0.17960      0.00000     0.81238    0.00802     0.82040
      C   29   -0.39853      1.99913     4.38793    0.01147     6.39853
      H   30    0.19917      0.00000     0.79736    0.00347     0.80083
      H   31    0.15478      0.00000     0.83876    0.00646     0.84522
      H   32    0.19222      0.00000     0.80376    0.00401     0.80778
      H   33    0.18924      0.00000     0.80759    0.00317     0.81076
      H   34    0.18972      0.00000     0.80731    0.00297     0.81028
      H   35    0.18404      0.00000     0.81218    0.00378     0.81596
 =======================================================================
   * Total *    0.00000     29.98734    83.66759    0.34507   114.00000

 ******   17 imaginary frequencies (negative Signs) ******

                      1                      2                      3
                      A                      A                      A
 Frequencies --   -927.6456              -901.2287              -892.5547
 Red. masses --      1.0503                 1.0391                 1.0629
 Frc consts  --      0.5325                 0.4973                 0.4989
 IR Inten    --      2.4549                 4.9554                 1.2578

                      4                      5                      6
                      A                      A                      A
 Frequencies --   -873.0017              -871.5390              -866.0339
 Red. masses --      1.0517                 1.0517                 1.0439
 Frc consts  --      0.4723                 0.4707                 0.4613
 IR Inten    --      1.4055                 1.5542                 1.0951

                      7                      8                      9
                      A                      A                      A
 Frequencies --   -861.4711              -860.9643              -857.3698
 Red. masses --      1.0922                 1.0619                 1.0649
 Frc consts  --      0.4776                 0.4638                 0.4612
 IR Inten    --      1.3506                 0.0996                 0.7902

                     10                     11                     12
                      A                      A                      A
 Frequencies --   -403.0984              -368.2978              -333.3655
 Red. masses --      1.7670                 1.9338                 1.8821
 Frc consts  --      0.1692                 0.1545                 0.1232
 IR Inten    --      0.5246                 0.7643                 0.0888

                     13                     14                     15
                      A                      A                      A
 Frequencies --   -299.3572              -250.4914              -245.6375
 Red. masses --      1.5778                 1.9255                 2.3119
 Frc consts  --      0.0833                 0.0712                 0.0822
 IR Inten    --      0.4937                 0.4387                 2.0962

                     16                     17                     18
                      A                      A                      A
 Frequencies --   -143.2938              -105.5751                36.5444
 Red. masses --      1.9605                 2.0211                 1.6887
 Frc consts  --      0.0237                 0.0133                 0.0013
 IR Inten    --      1.9006                 0.3185                 0.7395

                     19                     20                     21
                      A                      A                      A
 Frequencies --    237.0385               340.4128               410.2344
 Red. masses --      2.8797                 1.9206                 1.6556
 Frc consts  --      0.0953                 0.1311                 0.1642
 IR Inten    --      0.2622                 1.2251                 1.3242

                     22                     23                     24
                      A                      A                      A
 Frequencies --    440.1638               496.2675               506.2411
 Red. masses --      1.5623                 1.8115                 2.1515
 Frc consts  --      0.1783                 0.2629                 0.3249
 IR Inten    --      6.0146                 6.2935                 5.9777

                     25                     26                     27
                      A                      A                      A
 Frequencies --    523.5316               567.9080               596.5574
 Red. masses --      1.8368                 2.2242                 1.7663
 Frc consts  --      0.2966                 0.4227                 0.3704
 IR Inten    --      2.5036                 0.6066                 5.4589

                     28                     29                     30
                      A                      A                      A
 Frequencies --    626.8935               634.2504               649.9893
 Red. masses --      1.5154                 1.3401                 1.9420
 Frc consts  --      0.3509                 0.3176                 0.4834
 IR Inten    --      3.1090                 1.8338                 3.1748

                     31                     32                     33
                      A                      A                      A
 Frequencies --    669.0646               671.4991               690.1284
 Red. masses --      1.6329                 1.7360                 1.4744
 Frc consts  --      0.4307                 0.4612                 0.4137
 IR Inten    --     14.1099                 1.1137                 0.9014

                     34                     35                     36
                      A                      A                      A
 Frequencies --    721.1936               730.7309               746.0107
 Red. masses --      1.4876                 1.6156                 1.5895
 Frc consts  --      0.4559                 0.5083                 0.5212
 IR Inten    --      8.9696                 6.8195                 3.4217

                     37                     38                     39
                      A                      A                      A
 Frequencies --    756.0702               789.6811               804.2207
 Red. masses --      1.4143                 1.7747                 2.0022
 Frc consts  --      0.4763                 0.6521                 0.7630
 IR Inten    --      3.8016                 0.4124                 3.0542

                     40                     41                     42
                      A                      A                      A
 Frequencies --    825.5622               858.8708               881.3824
 Red. masses --      2.1121                 1.7054                 2.4915
 Frc consts  --      0.8481                 0.7412                 1.1404
 IR Inten    --      2.2454                 0.7298                 0.9757

                     43                     44                     45
                      A                      A                      A
 Frequencies --    889.4573               894.8673               904.4204
 Red. masses --      2.0942                 1.7684                 2.8416
 Frc consts  --      0.9761                 0.8344                 1.3695
 IR Inten    --      0.3971                 1.2707                13.2643

                     46                     47                     48
                      A                      A                      A
 Frequencies --    915.2713               935.7502               942.5169
 Red. masses --      2.5700                 2.0458                 2.3154
 Frc consts  --      1.2685                 1.0555                 1.2119
 IR Inten    --      7.1763                 4.6453                 8.0579

                     49                     50                     51
                      A                      A                      A
 Frequencies --    955.6808               978.3769               987.7464
 Red. masses --      2.6141                 1.8676                 2.8953
 Frc consts  --      1.4067                 1.0533                 1.6643
 IR Inten    --      2.8741                26.9472                10.0928

                     52                     53                     54
                      A                      A                      A
 Frequencies --    993.0186              1009.5337              1016.0549
 Red. masses --      1.7136                 5.1821                 2.9329
 Frc consts  --      0.9956                 3.1117                 1.7839
 IR Inten    --      9.5079                 1.7447                10.8986

                     55                     56                     57
                      A                      A                      A
 Frequencies --   1036.9686              1049.3037              1059.1221
 Red. masses --      2.4284                 3.3678                 4.2357
 Frc consts  --      1.5385                 2.1847                 2.7994
 IR Inten    --     33.0794                 7.1790                14.5801

                     58                     59                     60
                      A                      A                      A
 Frequencies --   1068.2881              1087.9440              1094.5170
 Red. masses --      2.8920                 2.9655                 1.6774
 Frc consts  --      1.9446                 2.0681                 1.1839
 IR Inten    --     15.1089                 8.5182                14.9183

                     61                     62                     63
                      A                      A                      A
 Frequencies --   1111.1585              1114.5116              1124.5187
 Red. masses --      2.3875                 1.6389                 1.5524
 Frc consts  --      1.7368                 1.1994                 1.1566
 IR Inten    --     25.2697                 5.4830                 9.7023

                     64                     65                     66
                      A                      A                      A
 Frequencies --   1130.2466              1134.1158              1142.7478
 Red. masses --      1.9240                 1.1657                 1.2572
 Frc consts  --      1.4481                 0.8834                 0.9673
 IR Inten    --     13.1985                 4.3370                 3.8400

                     67                     68                     69
                      A                      A                      A
 Frequencies --   1145.3372              1150.1548              1157.6649
 Red. masses --      1.2388                 1.2968                 1.4842
 Frc consts  --      0.9575                 1.0107                 1.1719
 IR Inten    --      8.5494                 0.8768                 8.7938

                     70                     71                     72
                      A                      A                      A
 Frequencies --   1166.4439              1186.8103              1191.3163
 Red. masses --      1.5098                 3.0931                 3.0216
 Frc consts  --      1.2103                 2.5669                 2.5266
 IR Inten    --     31.6862                16.1704                20.0119

                     73                     74                     75
                      A                      A                      A
 Frequencies --   1194.7674              1209.4156              1229.2664
 Red. masses --      4.4306                 2.0529                 3.2959
 Frc consts  --      3.7263                 1.7691                 2.9343
 IR Inten    --     25.6671                27.8770                52.4706

                     76                     77                     78
                      A                      A                      A
 Frequencies --   1238.8201              1295.8761              1322.1222
 Red. masses --      4.4090                 4.2121                 4.3424
 Frc consts  --      3.9867                 4.1675                 4.4723
 IR Inten    --     32.9830                46.6457                25.2760

                     79                     80                     81
                      A                      A                      A
 Frequencies --   1383.3495              4105.8910              4115.3441
 Red. masses --     10.3201                 1.0863                 1.0878
 Frc consts  --     11.6359                10.7901                10.8542
 IR Inten    --      2.5190                22.7306                41.6874

                     82                     83                     84
                      A                      A                      A
 Frequencies --   4170.5039              4177.4833              4180.4058
 Red. masses --      1.0598                 1.0591                 1.0587
 Frc consts  --     10.8604                10.8895                10.9013
 IR Inten    --     42.3550                40.4458                17.7620

                     85                     86                     87
                      A                      A                      A
 Frequencies --   4182.5435              4183.7648              4184.6917
 Red. masses --      1.0582                 1.0602                 1.0600
 Frc consts  --     10.9070                10.9340                10.9367
 IR Inten    --     26.6739                28.7932                26.7836

                     88                     89                     90
                      A                      A                      A
 Frequencies --   4186.3036              4191.7310              4193.6918
 Red. masses --      1.0601                 1.0607                 1.0598
 Frc consts  --     10.9459                10.9806                10.9821
 IR Inten    --     22.5609                34.8076                29.4115

                     91                     92                     93
                      A                      A                      A
 Frequencies --   4284.7427              4290.6599              4290.7320
 Red. masses --      1.1085                 1.1092                 1.1092
 Frc consts  --     11.9904                12.0311                12.0318
 IR Inten    --     17.7053                 0.0652                 7.7968

                     94                     95                     96
                      A                      A                      A
 Frequencies --   4294.4910              4295.4496              4295.7957
 Red. masses --      1.1119                 1.1096                 1.1098
 Frc consts  --     12.0819                12.0622                12.0670
 IR Inten    --     12.5080                 6.2316                16.4435

                     97                     98                     99
                      A                      A                      A
 Frequencies --   4300.6254              4304.6059              4310.1680
 Red. masses --      1.1101                 1.1086                 1.1109
 Frc consts  --     12.0973                12.1032                12.1593
 IR Inten    --     15.1840                17.0743                10.2297

 - Thermochemistry -
 -------------------
 Temperature   298.150 Kelvin.  Pressure   1.00000 Atm.
 Atom     1 has atomic number  7 and mass  14.00307

 Molecular mass:   208.16880 amu.
 Principal axes and moments of inertia in atomic units:
                           1         2         3
     Eigenvalues --  1667.010312911.762134022.57672
           X            0.99996   0.00914   0.00168
           Y           -0.00914   0.99996   0.00039
           Z           -0.00168  -0.00040   1.00000
 This molecule is an asymmetric top.
 Rotational symmetry number  1.
 Warning -- assumption of classical behavior for rotation
           may cause significant error
 Rotational temperatures (Kelvin)      0.05196     0.02975     0.02153
 Rotational constants (GHZ):           1.08262     0.61981     0.44865
   17 imaginary frequencies ignored.
 Zero-point vibrational energy     838567.6 (Joules/Mol)
                                  200.42247 (Kcal/Mol)
 Warning -- explicit consideration of  10 degrees of freedom as
           vibrations may cause significant error
 Vibrational temperatures:     52.58   341.05   489.78   590.24   633.30
          (Kelvin)            714.02   728.37   753.25   817.09   858.31
                              901.96   912.54   935.19   962.63   966.14
                              992.94  1037.64  1051.36  1073.34  1087.82
                             1136.17  1157.09  1187.80  1235.72  1268.11
                             1279.73  1287.51  1301.26  1316.87  1346.34
                             1356.07  1375.01  1407.67  1421.15  1428.73
                             1452.49  1461.88  1491.97  1509.71  1523.84
                             1537.03  1565.31  1574.77  1598.71  1603.53
                             1617.93  1626.17  1631.74  1644.16  1647.88
                             1654.82  1665.62  1678.25  1707.56  1714.04
                             1719.00  1740.08  1768.64  1782.39  1864.48
                             1902.24  1990.33  5907.46  5921.06  6000.42
                             6010.47  6014.67  6017.75  6019.50  6020.84
                             6023.16  6030.97  6033.79  6164.79  6173.30
                             6173.41  6178.81  6180.19  6180.69  6187.64
                             6193.37  6201.37

 Zero-point correction=                           0.319394 (Hartree/Particle)
 Thermal correction to Energy=                    0.328118
 Thermal correction to Enthalpy=                  0.329062
 Thermal correction to Gibbs Free Energy=         0.284796
 Sum of electronic and zero-point Energies=           -648.484039
 Sum of electronic and thermal Energies=              -648.475315
 Sum of electronic and thermal Enthalpies=            -648.474371
 Sum of electronic and thermal Free Energies=         -648.518636

                     E (Thermal)             CV                S
                      KCal/Mol        Cal/Mol-Kelvin    Cal/Mol-Kelvin
 Total                  205.897             42.692             93.165
 Electronic               0.000              0.000              0.000
 Translational            0.889              2.981             41.903
 Rotational               0.889              2.981             31.346
 Vibrational            204.120             36.730             19.915
 Vibration     1          0.594              1.982              5.438
 Vibration     2          0.656              1.784              1.825
 Vibration     3          0.720              1.595              1.210
 Vibration     4          0.774              1.448              0.926
 Vibration     5          0.800              1.383              0.826
 Vibration     6          0.852              1.258              0.668
 Vibration     7          0.861              1.236              0.643
 Vibration     8          0.878              1.198              0.602
 Vibration     9          0.924              1.101              0.508
 Vibration    10          0.954              1.039              0.456

 1\1\GINC-JST289\Freq\RPBE1PBE\def2SVP\C11H20N4\LAPLAZA\04-Mar-2023\0\\
 #p pop=(regular,nbo,savenbos) freq=noraman def2svp empiricaldispersion
 =gd3bj output=wfx pbe1pbe\\TUYHOK_Complex_2_Ligand_0_NN_Cu_oriented\\0
 ,1\N,-2.00088672,0.52353808,0.\C,-2.39935539,0.53816056,1.43976307\C,-
 1.33347705,1.22778525,2.2515802\N,-1.12301755,2.61361507,1.76999721\C,
 0.21570694,3.09737306,2.16985307\C,1.19740795,2.56564386,1.09769232\N,
 0.31586878,2.0661949,0.\C,0.67653497,2.47441063,-1.38053228\C,-0.33188
 975,1.83208322,-2.31245188\N,-1.72754265,2.08101464,-1.89762338\C,-2.6

 Normal termination of Gaussian 16 at Sat Mar  4 12:48:28 2023.
