 Gaussian 16, Revision C.01,
 Gaussian 16:  ES64L-G16RevC.01  3-Jul-2019

 ----------------------------------------------------------------------
 #p pop=(regular,nbo,savenbos) freq=noraman def2svp empiricaldispersion
 =gd3bj output=wfx pbe1pbe
 ----------------------------------------------------------------------

 ----------------------------------------
 TUYHUQ_Complex_2_Ligand_0_NN_Cu_oriented
 ----------------------------------------
 Symbolic Z-matrix:
 Charge =  0 Multiplicity = 1

                         Standard orientation:
 ---------------------------------------------------------------------
 Center     Atomic      Atomic             Coordinates (Angstroms)
 Number     Number       Type             X           Y           Z
 ---------------------------------------------------------------------
      1          7           0        0.911256    1.034007   -0.457412
      2          6           0       -0.151253   -2.286045   -0.298722
      3          6           0        1.335270   -1.914306   -0.299407
      4          7           0        1.675591   -0.864541    0.680266
      5          6           0        2.892654   -0.104890    0.279282
      6          6           0        2.404260    1.110678   -0.550098
      7          6           0        0.717889    0.219326    0.778180
      8          1           0       -0.348899   -2.899078   -1.037689
      9          1           0        1.862457   -2.716618   -0.100369
     10          1           0        1.585666   -1.606367   -1.194784
     11          1           0        3.486261   -0.669307   -0.258975
     12          1           0        3.383350    0.197165    1.072029
     13          1           0        2.736489    1.951470   -0.169769
     14          1           0        2.702750    1.042530   -1.480683
     15          1           0        0.905276    0.767769    1.580959
     16          6           0        0.144827    2.289662   -0.290311
     17          6           0       -1.335299    1.917897   -0.302266
     18          7           0       -1.679989    0.867831    0.680092
     19          6           0       -2.893619    0.110815    0.259615
     20          6           0       -2.394725   -1.137065   -0.521891
     21          7           0       -0.914047   -1.027566   -0.457885
     22          6           0       -0.713699   -0.211212    0.770678
     23          1           0        0.344826    2.909858   -1.021969
     24          1           0        0.379582    2.721487    0.556918
     25          1           0       -1.865913    2.719790   -0.110547
     26          1           0       -1.578521    1.606346   -1.198652
     27          1           0       -3.460820    0.668928   -0.313689
     28          1           0       -2.707981   -1.117968   -1.450968
     29          1           0       -2.704243   -1.964041   -0.096886
     30          1           0       -0.901533   -0.761379    1.571817
     31          1           0       -0.392245   -2.726020    0.543836
     32          1           0       -3.414007   -0.161844    1.043626
 ---------------------------------------------------------------------

 SCF Done:  E(RPBE1PBE) =  -609.533364993     A.U. after   12 cycles

 The electronic state is 1-A.
 Alpha  occ. eigenvalues --  -14.37270 -14.37248 -14.36068 -14.36055 -10.25283
 Alpha  occ. eigenvalues --  -10.25227 -10.22715 -10.22668 -10.22507 -10.22426
 Alpha  occ. eigenvalues --  -10.22139 -10.22087 -10.22056 -10.21950  -0.99628
 Alpha  occ. eigenvalues --   -0.95487  -0.90468  -0.86231  -0.80078  -0.78429
 Alpha  occ. eigenvalues --   -0.74662  -0.73538  -0.67525  -0.65466  -0.63440
 Alpha  occ. eigenvalues --   -0.63308  -0.60593  -0.55838  -0.53126  -0.51576
 Alpha  occ. eigenvalues --   -0.50568  -0.49341  -0.48756  -0.48347  -0.46860
 Alpha  occ. eigenvalues --   -0.44063  -0.43900  -0.43136  -0.42683  -0.41909
 Alpha  occ. eigenvalues --   -0.39868  -0.39561  -0.38530  -0.37785  -0.36087
 Alpha  occ. eigenvalues --   -0.35542  -0.34086  -0.33905  -0.32760  -0.23105
 Alpha  occ. eigenvalues --   -0.22908  -0.22158  -0.19917
 Alpha virt. eigenvalues --    0.07891   0.08448   0.10438   0.11016   0.11577
 Alpha virt. eigenvalues --    0.12766   0.12919   0.13964   0.14099   0.14401
 Alpha virt. eigenvalues --    0.15804   0.15908   0.16438   0.16852   0.17585

 Mulliken charges:
               1
     1  N   -0.496075
     2  C    0.219088
     3  C    0.292164
     4  N   -0.466694
     5  C    0.201927
     6  C    0.257371
     7  C    0.253968
     8  H   -0.021212
     9  H   -0.026459
    10  H   -0.034009
    11  H   -0.024012
    12  H   -0.016400
    13  H   -0.038079
    14  H   -0.022333
    15  H   -0.036919
    16  C    0.223561
    17  C    0.290221
    18  N   -0.467633
    19  C    0.205098
    20  C    0.255967
    21  N   -0.492897
    22  C    0.255503
    23  H   -0.022281
    24  H   -0.044508
    25  H   -0.026184
    26  H   -0.033963
    27  H   -0.023686
    28  H   -0.022838
    29  H   -0.039947
    30  H   -0.039098
    31  H   -0.043625
    32  H   -0.016017
 Sum of Mulliken charges =  -0.00000

 Dipole moment (field-independent basis, Debye):
    X=              0.0504    Y=             -0.0170    Z=             -0.7347  Tot=              0.7366
 Quadrupole moment (field-independent basis, Debye-Ang):
   XX=            -76.3682   YY=            -78.5458   ZZ=            -87.4706
   XY=              2.6863   XZ=              0.0702   YZ=              0.0422

  Exact polarizability:     129.161       0.453     117.250      -0.068      -0.035      87.590
 Approx polarizability:     160.837      -1.154     154.845      -0.108      -0.083     136.060

 Summary of Natural Population Analysis:

                                       Natural Population
                Natural  -----------------------------------------------
    Atom  No    Charge         Core      Valence    Rydberg      Total
 -----------------------------------------------------------------------
      N    1   -0.58898      1.99939     5.57418    0.01541     7.58898
      C    2   -0.15366      1.99909     4.13908    0.01549     6.15366
      C    3   -0.14942      1.99905     4.13293    0.01744     6.14942
      N    4   -0.56390      1.99937     5.55043    0.01410     7.56390
      C    5   -0.15685      1.99911     4.14169    0.01605     6.15685
      C    6   -0.16518      1.99912     4.15178    0.01428     6.16518
      C    7    0.19089      1.99897     3.78354    0.02661     5.80911
      H    8    0.19193      0.00000     0.80530    0.00278     0.80807
      H    9    0.18399      0.00000     0.81298    0.00302     0.81601
      H   10    0.17009      0.00000     0.82449    0.00542     0.82991
      H   11    0.18463      0.00000     0.81250    0.00286     0.81537
      H   12    0.18343      0.00000     0.81369    0.00287     0.81657
      H   13    0.16331      0.00000     0.83195    0.00475     0.83669
      H   14    0.17886      0.00000     0.81817    0.00297     0.82114
      H   15    0.17247      0.00000     0.81978    0.00775     0.82753
      C   16   -0.15354      1.99908     4.13897    0.01548     6.15354
      C   17   -0.14982      1.99905     4.13341    0.01736     6.14982
      N   18   -0.56405      1.99937     5.55056    0.01412     7.56405
      C   19   -0.15564      1.99911     4.14054    0.01600     6.15564
      C   20   -0.16528      1.99912     4.15156    0.01460     6.16528
      N   21   -0.58596      1.99939     5.57112    0.01545     7.58596
      C   22    0.19068      1.99896     3.78360    0.02676     5.80932
      H   23    0.19205      0.00000     0.80517    0.00278     0.80795
      H   24    0.15790      0.00000     0.83547    0.00663     0.84210
      H   25    0.18399      0.00000     0.81298    0.00303     0.81601
      H   26    0.17066      0.00000     0.82385    0.00549     0.82934
      H   27    0.18385      0.00000     0.81323    0.00292     0.81615
      H   28    0.18027      0.00000     0.81679    0.00294     0.81973
      H   29    0.16105      0.00000     0.83398    0.00496     0.83895
      H   30    0.17119      0.00000     0.82093    0.00788     0.82881
      H   31    0.15801      0.00000     0.83532    0.00667     0.84199
      H   32    0.18302      0.00000     0.81413    0.00285     0.81698
 =======================================================================
   * Total *    0.00000     27.98818    77.69411    0.31771   106.00000

 ******   16 imaginary frequencies (negative Signs) ******

                      1                      2                      3
                      A                      A                      A
 Frequencies --   -994.5866              -983.8150              -966.9937
 Red. masses --      1.0331                 1.0735                 1.0311
 Frc consts  --      0.6021                 0.6122                 0.5681
 IR Inten    --      5.0020                 1.0014                 1.6719

                      4                      5                      6
                      A                      A                      A
 Frequencies --   -965.6510              -954.3236              -946.9192
 Red. masses --      1.0474                 1.0481                 1.0545
 Frc consts  --      0.5754                 0.5624                 0.5571
 IR Inten    --      1.2215                 0.1241                 1.1051

                      7                      8                      9
                      A                      A                      A
 Frequencies --   -943.7652              -939.7091              -515.9022
 Red. masses --      1.0558                 1.0741                 1.5121
 Frc consts  --      0.5541                 0.5588                 0.2371
 IR Inten    --      0.5482                 0.2030                 0.0173

                     10                     11                     12
                      A                      A                      A
 Frequencies --   -492.1252              -434.6147              -394.7284
 Red. masses --      1.5052                 1.6340                 1.5133
 Frc consts  --      0.2148                 0.1819                 0.1389
 IR Inten    --      1.2728                 0.0622                 1.0236

                     13                     14                     15
                      A                      A                      A
 Frequencies --   -364.4842              -322.5840              -250.2565
 Red. masses --      1.9383                 1.5350                 1.8748
 Frc consts  --      0.1517                 0.0941                 0.0692
 IR Inten    --      1.1497                 3.1083                 1.9619

                     16                     17                     18
                      A                      A                      A
 Frequencies --    -97.2297               197.1491               269.7827
 Red. masses --      1.7320                 1.3792                 1.4468
 Frc consts  --      0.0096                 0.0316                 0.0620
 IR Inten    --      0.5010                 3.9838                 1.5224

                     19                     20                     21
                      A                      A                      A
 Frequencies --    340.4424               398.1868               418.6965
 Red. masses --      1.4151                 1.3283                 1.3751
 Frc consts  --      0.0966                 0.1241                 0.1420
 IR Inten    --      7.2828                 9.7298                 1.7902

                     22                     23                     24
                      A                      A                      A
 Frequencies --    490.5171               494.8975               508.0752
 Red. masses --      1.1806                 2.7517                 1.3749
 Frc consts  --      0.1674                 0.3971                 0.2091
 IR Inten    --      8.3558                 1.3155                 0.7685

                     25                     26                     27
                      A                      A                      A
 Frequencies --    534.9494               539.5658               569.2383
 Red. masses --      1.3853                 1.7318                 2.3953
 Frc consts  --      0.2336                 0.2971                 0.4573
 IR Inten    --      3.4514                 1.9672                 0.9680

                     28                     29                     30
                      A                      A                      A
 Frequencies --    573.0606               581.1366               625.3453
 Red. masses --      1.6404                 1.4953                 3.3184
 Frc consts  --      0.3174                 0.2975                 0.7646
 IR Inten    --      5.2476                 0.0417                 0.9784

                     31                     32                     33
                      A                      A                      A
 Frequencies --    646.0595               656.6410               661.1371
 Red. masses --      1.8880                 1.6176                 1.4740
 Frc consts  --      0.4643                 0.4109                 0.3796
 IR Inten    --     13.6562                 5.0790                 3.1209

                     34                     35                     36
                      A                      A                      A
 Frequencies --    682.5488               760.1248               772.2835
 Red. masses --      1.6770                 2.6072                 2.3423
 Frc consts  --      0.4603                 0.8876                 0.8231
 IR Inten    --      0.3117                 0.0212                 3.9520

                     37                     38                     39
                      A                      A                      A
 Frequencies --    815.8633               831.2042               854.6941
 Red. masses --      2.2641                 2.1270                 3.4719
 Frc consts  --      0.8879                 0.8658                 1.4943
 IR Inten    --      0.9854                 0.1348                 4.1452

                     40                     41                     42
                      A                      A                      A
 Frequencies --    863.7758               866.2467               879.5888
 Red. masses --      3.0153                 2.7014                 2.6280
 Frc consts  --      1.3255                 1.1943                 1.1979
 IR Inten    --      0.8448                 7.3922                 0.5805

                     43                     44                     45
                      A                      A                      A
 Frequencies --    895.3425               899.1502               931.9028
 Red. masses --      2.7653                 4.3133                 2.0701
 Frc consts  --      1.3061                 2.0546                 1.0592
 IR Inten    --      3.4297                 3.2655                16.0656

                     46                     47                     48
                      A                      A                      A
 Frequencies --    935.2514               959.7241               989.1703
 Red. masses --      1.9901                 5.4668                 3.1346
 Frc consts  --      1.0256                 2.9667                 1.8071
 IR Inten    --      2.5976                19.7727                10.7389

                     49                     50                     51
                      A                      A                      A
 Frequencies --    994.0584               994.8336              1005.7687
 Red. masses --      4.3816                 3.5473                 3.0771
 Frc consts  --      2.5510                 2.0685                 1.8340
 IR Inten    --     10.8014                 2.1720                13.5515

                     52                     53                     54
                      A                      A                      A
 Frequencies --   1036.0138              1039.9477              1050.6362
 Red. masses --      4.6156                 3.0020                 1.8063
 Frc consts  --      2.9188                 1.9129                 1.1748
 IR Inten    --      3.9844                10.6540                 6.1597

                     55                     56                     57
                      A                      A                      A
 Frequencies --   1053.9741              1071.1122              1081.0938
 Red. masses --      2.1390                 1.4863                 1.3479
 Frc consts  --      1.4000                 1.0047                 0.9282
 IR Inten    --      0.9939                 3.2412                11.1047

                     58                     59                     60
                      A                      A                      A
 Frequencies --   1084.1549              1090.7632              1103.3973
 Red. masses --      1.7128                 1.6079                 1.1913
 Frc consts  --      1.1861                 1.1271                 0.8545
 IR Inten    --     18.5001                39.1920                 0.6435

                     61                     62                     63
                      A                      A                      A
 Frequencies --   1106.8373              1109.7017              1112.4483
 Red. masses --      1.2578                 1.4603                 1.4108
 Frc consts  --      0.9079                 1.0595                 1.0287
 IR Inten    --      2.6848                11.7397                 6.1067

                     64                     65                     66
                      A                      A                      A
 Frequencies --   1153.3117              1182.5817              1186.3897
 Red. masses --      3.0839                 4.9757                 4.4127
 Frc consts  --      2.4168                 4.0998                 3.6594
 IR Inten    --      3.5165                17.9521                41.7245

                     67                     68                     69
                      A                      A                      A
 Frequencies --   1192.5809              1200.0712              1208.9464
 Red. masses --      5.1745                 2.8559                 2.9048
 Frc consts  --      4.3361                 2.4233                 2.5014
 IR Inten    --     76.3276                28.4912                21.0469

                     70                     71                     72
                      A                      A                      A
 Frequencies --   1296.2294              1310.3968              1375.7362
 Red. masses --      4.4344                 5.0387                10.6253
 Frc consts  --      4.3899                 5.0977                11.8484
 IR Inten    --     51.3855                 7.6479                 4.0630

                     73                     74                     75
                      A                      A                      A
 Frequencies --   4223.1827              4228.7475              4289.3133
 Red. masses --      1.0864                 1.0880                 1.0586
 Frc consts  --     11.4159                11.4629                11.4755
 IR Inten    --     16.2884                51.5936                12.2570

                     76                     77                     78
                      A                      A                      A
 Frequencies --   4290.2626              4291.1846              4298.6344
 Red. masses --      1.0582                 1.0585                 1.0587
 Frc consts  --     11.4763                11.4841                11.5257
 IR Inten    --     67.8967                12.1630                14.2844

                     79                     80                     81
                      A                      A                      A
 Frequencies --   4301.0505              4301.7902              4306.0514
 Red. masses --      1.0601                 1.0598                 1.0599
 Frc consts  --     11.5541                11.5555                11.5794
 IR Inten    --     34.7867                30.7288                36.9435

                     82                     83                     84
                      A                      A                      A
 Frequencies --   4307.7879              4407.5361              4410.0445
 Red. masses --      1.0599                 1.1119                 1.1096
 Frc consts  --     11.5887                12.7260                12.7149
 IR Inten    --     24.9203                 9.5363                 4.4686

                     85                     86                     87
                      A                      A                      A
 Frequencies --   4410.6760              4411.8070              4416.1171
 Red. masses --      1.1102                 1.1117                 1.1097
 Frc consts  --     12.7246                12.7487                12.7507
 IR Inten    --      3.7734                 9.8889                15.9224

                     88                     89                     90
                      A                      A                      A
 Frequencies --   4422.9439              4426.4789              4428.2352
 Red. masses --      1.1100                 1.1108                 1.1107
 Frc consts  --     12.7940                12.8233                12.8327
 IR Inten    --     15.6267                 9.0979                 7.8361

 - Thermochemistry -
 -------------------
 Temperature   298.150 Kelvin.  Pressure   1.00000 Atm.
 Atom     1 has atomic number  7 and mass  14.00307

 Molecular mass:   194.15315 amu.
 Principal axes and moments of inertia in atomic units:
                           1         2         3
     Eigenvalues --  1514.133962328.187913388.41889
           X            0.99989   0.01459   0.00002
           Y           -0.01459   0.99989  -0.00002
           Z           -0.00002   0.00002   1.00000
 This molecule is an asymmetric top.
 Rotational symmetry number  1.
 Warning -- assumption of classical behavior for rotation
           may cause significant error
 Rotational temperatures (Kelvin)      0.05720     0.03720     0.02556
 Rotational constants (GHZ):           1.19193     0.77517     0.53262
   16 imaginary frequencies ignored.
 Zero-point vibrational energy     757562.6 (Joules/Mol)
                                  181.06181 (Kcal/Mol)
 Warning -- explicit consideration of  13 degrees of freedom as
           vibrations may cause significant error
 Vibrational temperatures:    283.65   388.16   489.82   572.90   602.41
          (Kelvin)            705.74   712.05   731.01   769.67   776.31
                              819.01   824.51   836.13   899.73   929.54
                              944.76   951.23   982.04  1093.65  1111.14
                             1173.85  1195.92  1229.71  1242.78  1246.34
                             1265.53  1288.20  1293.68  1340.80  1345.62
                             1380.83  1423.20  1430.23  1431.34  1447.08
                             1490.59  1496.25  1511.63  1516.43  1541.09
                             1555.45  1559.86  1569.37  1587.54  1592.49
                             1596.61  1600.57  1659.36  1701.47  1706.95
                             1715.86  1726.63  1739.40  1864.99  1885.37
                             1979.38  6076.22  6084.22  6171.37  6172.73
                             6174.06  6184.78  6188.25  6189.32  6195.45
                             6197.95  6341.46  6345.07  6345.98  6347.61
                             6353.81  6363.63  6368.72  6371.24

 Zero-point correction=                           0.288540 (Hartree/Particle)
 Thermal correction to Energy=                    0.297060
 Thermal correction to Enthalpy=                  0.298004
 Thermal correction to Gibbs Free Energy=         0.255478
 Sum of electronic and zero-point Energies=           -609.244825
 Sum of electronic and thermal Energies=              -609.236305
 Sum of electronic and thermal Enthalpies=            -609.235361
 Sum of electronic and thermal Free Energies=         -609.277887

                     E (Thermal)             CV                S
                      KCal/Mol        Cal/Mol-Kelvin    Cal/Mol-Kelvin
 Total                  186.408             41.980             89.504
 Electronic               0.000              0.000              0.000
 Translational            0.889              2.981             41.696
 Rotational               0.889              2.981             30.858
 Vibrational            184.631             36.019             16.950
 Vibration     1          0.637              1.844              2.160
 Vibration     2          0.674              1.729              1.598
 Vibration     3          0.720              1.595              1.210
 Vibration     4          0.764              1.474              0.969
 Vibration     5          0.782              1.430              0.896
 Vibration     6          0.846              1.271              0.682
 Vibration     7          0.851              1.261              0.671
 Vibration     8          0.863              1.232              0.638
 Vibration     9          0.890              1.173              0.576
 Vibration    10          0.895              1.163              0.566
 Vibration    11          0.925              1.098              0.506
 Vibration    12          0.929              1.090              0.498
 Vibration    13          0.938              1.072              0.483

 1\1\GINC-JST289\Freq\RPBE1PBE\def2SVP\C10H18N4\LAPLAZA\04-Mar-2023\0\\
 #p pop=(regular,nbo,savenbos) freq=noraman def2svp empiricaldispersion
 =gd3bj output=wfx pbe1pbe\\TUYHUQ_Complex_2_Ligand_0_NN_Cu_oriented\\0
 ,1\N,2.06071992,-0.1989523,0.\C,-0.16516689,-2.4901486,-1.40452992\C,0
 .76380971,-1.63337756,-2.27106828\N,2.17015446,-1.66194556,-1.82501422
 \C,2.90726654,-0.43396923,-2.23469565\C,2.76901023,0.57718816,-1.06745
 507\C,2.3612869,-1.60825056,-0.38900182\H,-1.0993855,-2.35064798,-1.66
 667631\H,0.71820089,-1.95360131,-3.19660753\H,0.44550614,-0.70722448,-

 Normal termination of Gaussian 16 at Sat Mar  4 12:23:52 2023.
