 Gaussian 16, Revision C.01,
 Gaussian 16:  ES64L-G16RevC.01  3-Jul-2019

 ----------------------------------------------------------------------
 #p pop=(regular,nbo,savenbos) freq=noraman def2svp empiricaldispersion
 =gd3bj output=wfx pbe1pbe
 ----------------------------------------------------------------------

 ----------------------------------------
 TUYJAY_Complex_3_Ligand_0_NN_Cu_oriented
 ----------------------------------------
 Symbolic Z-matrix:
 Charge =  0 Multiplicity = 1

                         Standard orientation:
 ---------------------------------------------------------------------
 Center     Atomic      Atomic             Coordinates (Angstroms)
 Number     Number       Type             X           Y           Z
 ---------------------------------------------------------------------
      1          7           0        1.611031   -1.303472   -0.731854
      2          6           0        1.093512   -2.387693    0.109967
      3          6           0       -0.381991   -2.548798   -0.128111
      4          7           0       -1.058196   -1.301801    0.268395
      5          6           0       -2.510702   -1.485845    0.166567
      6          6           0       -3.220341   -0.233454    0.664743
      7          7           0       -1.194819    1.043932    0.018473
      8          6           0        0.366140    2.970056    0.117911
      9          6           0        1.644044    2.149785    0.244135
     10          7           0        1.369906    0.721477    0.586381
     11          6           0        2.660492    0.031478    0.940451
     12          6           0        2.944754   -0.873375   -0.256041
     13          6           0        0.863420   -0.043993   -0.631439
     14          6           0       -0.642656   -0.198508   -0.598144
     15          1           0        1.257423   -2.178817    1.063557
     16          1           0        1.561879   -3.232489   -0.107337
     17          1           0       -0.552752   -2.736934   -1.086027
     18          1           0       -0.729609   -3.390443    0.380533
     19          1           0       -2.789092   -2.266377    0.708450
     20          1           0       -3.085239   -0.143861    1.641728
     21          1           0        2.141312    2.189710   -0.611626
     22          1           0        2.217888    2.547633    0.946519
     23          1           0        2.561053   -0.499952    1.769209
     24          1           0        3.390401    0.689640    1.066576
     25          1           0        3.427564   -0.377000   -0.964542
     26          1           0        3.488705   -1.653952    0.015622
     27          1           0        1.088420    0.500538   -1.438869
     28          6           0       -0.747320    2.293419   -0.665068
     29          1           0       -1.512660    2.913574   -0.752288
     30          1           0       -0.424290    2.074174   -1.574650
     31          6           0       -2.692611    0.986704   -0.028472
     32          1           0       -3.064198    1.796113    0.404854
     33          1           0       -2.991115    0.981539   -0.971337
     34          1           0       -2.761305   -1.659833   -0.776425
     35          1           0        0.031791    3.175804    1.026623
     36          1           0        0.584957    3.829394   -0.322832
     37          1           0       -4.192898   -0.314753    0.496034
     38          1           0       -1.004132   -0.323322   -1.522539
 ---------------------------------------------------------------------

 SCF Done:  E(RPBE1PBE) =  -688.018766773     A.U. after   13 cycles

 The electronic state is 1-A.
 Alpha  occ. eigenvalues --  -14.37595 -14.36650 -14.36298 -14.36020 -10.25978
 Alpha  occ. eigenvalues --  -10.25912 -10.22819 -10.22537 -10.22315 -10.22149
 Alpha  occ. eigenvalues --  -10.22118 -10.22003 -10.21905 -10.21821 -10.19314
 Alpha  occ. eigenvalues --  -10.19094  -0.98573  -0.94656  -0.90847  -0.87078
 Alpha  occ. eigenvalues --   -0.81540  -0.79615  -0.76349  -0.75985  -0.70235
 Alpha  occ. eigenvalues --   -0.68060  -0.66965  -0.64934  -0.61580  -0.60442
 Alpha  occ. eigenvalues --   -0.59514  -0.56250  -0.53111  -0.51491  -0.50809
 Alpha  occ. eigenvalues --   -0.49679  -0.48712  -0.47631  -0.47026  -0.46002
 Alpha  occ. eigenvalues --   -0.45109  -0.44016  -0.43534  -0.42952  -0.41065
 Alpha  occ. eigenvalues --   -0.39915  -0.39386  -0.39033  -0.38925  -0.38404
 Alpha  occ. eigenvalues --   -0.36647  -0.35992  -0.35232  -0.34456  -0.33145
 Alpha  occ. eigenvalues --   -0.32452  -0.31251  -0.23557  -0.22059  -0.21816
 Alpha  occ. eigenvalues --   -0.19683
 Alpha virt. eigenvalues --    0.07866   0.08544   0.09408   0.10128   0.10855
 Alpha virt. eigenvalues --    0.11621   0.12534   0.13413   0.13848   0.14338
 Alpha virt. eigenvalues --    0.14806   0.14864   0.15675   0.16219   0.16662

 Mulliken charges:
               1
     1  N   -0.468443
     2  C    0.291560
     3  C    0.179925
     4  N   -0.484886
     5  C    0.205466
     6  C    0.121849
     7  N   -0.475271
     8  C    0.136712
     9  C    0.171563
    10  N   -0.445958
    11  C    0.203707
    12  C    0.213646
    13  C    0.206726
    14  C    0.369479
    15  H   -0.032783
    16  H   -0.025847
    17  H   -0.045286
    18  H    0.004063
    19  H   -0.020522
    20  H   -0.005411
    21  H   -0.044840
    22  H   -0.015026
    23  H   -0.005175
    24  H   -0.027639
    25  H   -0.025856
    26  H   -0.022750
    27  H   -0.036171
    28  C    0.182641
    29  H   -0.023212
    30  H   -0.035340
    31  C    0.189732
    32  H   -0.011520
    33  H   -0.050842
    34  H   -0.055163
    35  H   -0.014498
    36  H   -0.027811
    37  H   -0.023196
    38  H   -0.053624
 Sum of Mulliken charges =  -0.00000

 Dipole moment (field-independent basis, Debye):
    X=              0.1086    Y=              0.0412    Z=             -1.0006  Tot=              1.0073
 Quadrupole moment (field-independent basis, Debye-Ang):
   XX=            -87.7186   YY=            -90.0607   ZZ=           -100.7318
   XY=              0.9065   XZ=              2.5614   YZ=             -3.1407

  Exact polarizability:     150.557       0.351     147.505       2.109      -1.762     104.305
 Approx polarizability:     185.889      -0.137     190.033       2.299      -1.328     163.760

 Summary of Natural Population Analysis:

                                       Natural Population
                Natural  -----------------------------------------------
    Atom  No    Charge         Core      Valence    Rydberg      Total
 -----------------------------------------------------------------------
      N    1   -0.56239      1.99938     5.54884    0.01417     7.56239
      C    2   -0.16330      1.99907     4.14623    0.01799     6.16330
      C    3   -0.18331      1.99911     4.16669    0.01751     6.18331
      N    4   -0.56895      1.99933     5.55362    0.01600     7.56895
      C    5   -0.15596      1.99910     4.13984    0.01701     6.15596
      C    6   -0.38187      1.99913     4.37018    0.01256     6.38187
      N    7   -0.56827      1.99938     5.55314    0.01575     7.56827
      C    8   -0.37775      1.99909     4.36567    0.01298     6.37775
      C    9   -0.15362      1.99906     4.13883    0.01573     6.15362
      N   10   -0.58146      1.99942     5.56581    0.01622     7.58146
      C   11   -0.17305      1.99912     4.15899    0.01495     6.17305
      C   12   -0.17416      1.99913     4.15805    0.01699     6.17416
      C   13    0.17992      1.99896     3.79564    0.02548     5.82008
      C   14    0.19599      1.99894     3.78170    0.02336     5.80401
      H   15    0.17335      0.00000     0.82082    0.00583     0.82665
      H   16    0.19152      0.00000     0.80548    0.00300     0.80848
      H   17    0.16560      0.00000     0.82726    0.00714     0.83440
      H   18    0.21160      0.00000     0.78552    0.00287     0.78840
      H   19    0.19159      0.00000     0.80532    0.00309     0.80841
      H   20    0.19851      0.00000     0.79609    0.00540     0.80149
      H   21    0.15239      0.00000     0.84175    0.00587     0.84761
      H   22    0.19116      0.00000     0.80571    0.00313     0.80884
      H   23    0.17997      0.00000     0.81669    0.00334     0.82003
      H   24    0.18257      0.00000     0.81366    0.00377     0.81743
      H   25    0.18595      0.00000     0.81098    0.00308     0.81405
      H   26    0.18981      0.00000     0.80703    0.00317     0.81019
      H   27    0.17872      0.00000     0.81471    0.00657     0.82128
      C   28   -0.16405      1.99908     4.14841    0.01655     6.16405
      H   29    0.18923      0.00000     0.80702    0.00374     0.81077
      H   30    0.16499      0.00000     0.82947    0.00555     0.83501
      C   31   -0.15557      1.99908     4.14083    0.01566     6.15557
      H   32    0.19080      0.00000     0.80602    0.00318     0.80920
      H   33    0.15522      0.00000     0.83838    0.00639     0.84478
      H   34    0.15528      0.00000     0.83809    0.00663     0.84472
      H   35    0.19682      0.00000     0.79825    0.00494     0.80318
      H   36    0.19214      0.00000     0.80411    0.00376     0.80786
      H   37    0.19709      0.00000     0.79959    0.00332     0.80291
      H   38    0.15350      0.00000     0.83730    0.00920     0.84650
 =======================================================================
   * Total *   -0.00000     31.98639    89.64173    0.37188   122.00000

 ******   18 imaginary frequencies (negative Signs) ******

                      1                      2                      3
                      A                      A                      A
 Frequencies --   -942.8928              -923.0523              -891.6836
 Red. masses --      1.0515                 1.0499                 1.0440
 Frc consts  --      0.5508                 0.5271                 0.4891
 IR Inten    --      3.2852                 1.9773                 4.0154

                      4                      5                      6
                      A                      A                      A
 Frequencies --   -879.3724              -875.1139              -869.1173
 Red. masses --      1.0425                 1.0483                 1.0549
 Frc consts  --      0.4750                 0.4730                 0.4695
 IR Inten    --      1.9313                 1.9254                 1.8104

                      7                      8                      9
                      A                      A                      A
 Frequencies --   -864.8881              -856.1793              -838.4691
 Red. masses --      1.0551                 1.0602                 1.0701
 Frc consts  --      0.4650                 0.4579                 0.4433
 IR Inten    --      1.2484                 1.5161                 0.1369

                     10                     11                     12
                      A                      A                      A
 Frequencies --   -711.0420              -377.9078              -361.0746
 Red. masses --      1.0898                 1.9697                 2.0247
 Frc consts  --      0.3246                 0.1657                 0.1555
 IR Inten    --      1.3600                 0.1925                 1.0577

                     13                     14                     15
                      A                      A                      A
 Frequencies --   -346.8408              -309.0741              -286.2838
 Red. masses --      1.9788                 1.9549                 1.8378
 Frc consts  --      0.1403                 0.1100                 0.0887
 IR Inten    --      1.4187                 0.3421                 0.2250

                     16                     17                     18
                      A                      A                      A
 Frequencies --   -260.5831              -217.8592               -96.7938
 Red. masses --      1.7268                 1.8279                 2.2592
 Frc consts  --      0.0691                 0.0511                 0.0125
 IR Inten    --      0.3956                 0.3820                 1.2682

                     19                     20                     21
                      A                      A                      A
 Frequencies --    146.6560               184.6519               224.6331
 Red. masses --      2.1104                 1.7457                 1.8731
 Frc consts  --      0.0267                 0.0351                 0.0557
 IR Inten    --      0.0980                 0.5457                 1.1652

                     22                     23                     24
                      A                      A                      A
 Frequencies --    233.5662               285.1082               367.9444
 Red. masses --      3.2517                 1.7028                 1.8583
 Frc consts  --      0.1045                 0.0816                 0.1482
 IR Inten    --      1.8954                 1.4223                 1.9392

                     25                     26                     27
                      A                      A                      A
 Frequencies --    472.1638               476.9713               524.9007
 Red. masses --      1.9775                 1.8096                 2.9966
 Frc consts  --      0.2597                 0.2426                 0.4864
 IR Inten    --      1.2848                 1.6893                 3.1880

                     28                     29                     30
                      A                      A                      A
 Frequencies --    544.3850               580.0593               633.7044
 Red. masses --      1.7068                 2.0462                 1.4529
 Frc consts  --      0.2980                 0.4056                 0.3438
 IR Inten    --      7.2149                 2.1162                13.3267

                     31                     32                     33
                      A                      A                      A
 Frequencies --    646.2757               661.1434               671.4442
 Red. masses --      1.7336                 1.4651                 1.4591
 Frc consts  --      0.4266                 0.3773                 0.3876
 IR Inten    --      2.0314                 1.3306                14.0466

                     34                     35                     36
                      A                      A                      A
 Frequencies --    682.0186               700.2046               716.2077
 Red. masses --      1.4745                 1.7107                 1.5678
 Frc consts  --      0.4041                 0.4942                 0.4738
 IR Inten    --      1.8944                10.0753                 0.6714

                     37                     38                     39
                      A                      A                      A
 Frequencies --    731.4075               738.7894               752.2920
 Red. masses --      1.3157                 1.5562                 1.9228
 Frc consts  --      0.4147                 0.5004                 0.6412
 IR Inten    --     11.4401                 0.2608                 0.7515

                     40                     41                     42
                      A                      A                      A
 Frequencies --    775.3519               783.8552               802.9150
 Red. masses --      1.8695                 1.4651                 2.0128
 Frc consts  --      0.6622                 0.5304                 0.7645
 IR Inten    --     13.7695                 3.3609                 1.4757

                     43                     44                     45
                      A                      A                      A
 Frequencies --    819.4212               842.3221               855.7826
 Red. masses --      1.9065                 2.4172                 2.4319
 Frc consts  --      0.7542                 1.0104                 1.0494
 IR Inten    --      4.7579                 5.2923                 1.4719

                     46                     47                     48
                      A                      A                      A
 Frequencies --    864.3953               879.9631               906.6296
 Red. masses --      1.6987                 2.9090                 1.9638
 Frc consts  --      0.7478                 1.3272                 0.9511
 IR Inten    --      1.5639                 8.8191                 4.3413

                     49                     50                     51
                      A                      A                      A
 Frequencies --    933.3477               942.5029               948.9380
 Red. masses --      2.3223                 2.4862                 1.5767
 Frc consts  --      1.1919                 1.3012                 0.8365
 IR Inten    --      9.3378                 4.1634                 1.1153

                     52                     53                     54
                      A                      A                      A
 Frequencies --    953.2092               960.2849               968.6744
 Red. masses --      1.9117                 2.3895                 2.5314
 Frc consts  --      1.0234                 1.2982                 1.3995
 IR Inten    --      8.8844                 4.3854                39.4084

                     55                     56                     57
                      A                      A                      A
 Frequencies --    984.6194               989.8862              1001.3643
 Red. masses --      2.4255                 2.3203                 2.0401
 Frc consts  --      1.3854                 1.3396                 1.2053
 IR Inten    --      2.9290                 6.3400                 8.5201

                     58                     59                     60
                      A                      A                      A
 Frequencies --   1007.7929              1044.7700              1053.1108
 Red. masses --      2.7940                 2.5308                 3.5794
 Frc consts  --      1.6719                 1.6276                 2.3389
 IR Inten    --     12.9367                10.4505                 5.3031

                     61                     62                     63
                      A                      A                      A
 Frequencies --   1063.9108              1074.5214              1082.5169
 Red. masses --      2.5958                 2.6028                 1.9278
 Frc consts  --      1.7311                 1.7706                 1.3310
 IR Inten    --      8.2311                 1.2703                15.4854

                     64                     65                     66
                      A                      A                      A
 Frequencies --   1094.4108              1099.4080              1102.5273
 Red. masses --      1.7332                 2.3789                 2.8606
 Frc consts  --      1.2231                 1.6941                 2.0487
 IR Inten    --     14.5834                27.9432                 3.6752

                     67                     68                     69
                      A                      A                      A
 Frequencies --   1115.0539              1121.2400              1131.1675
 Red. masses --      1.6167                 1.5231                 1.4841
 Frc consts  --      1.1844                 1.1282                 1.1188
 IR Inten    --      9.2321                11.5606                 3.1643

                     70                     71                     72
                      A                      A                      A
 Frequencies --   1134.9824              1142.4791              1147.3650
 Red. masses --      1.4593                 1.4562                 1.2556
 Frc consts  --      1.1075                 1.1199                 0.9739
 IR Inten    --      4.3036                 1.8110                13.4307

                     73                     74                     75
                      A                      A                      A
 Frequencies --   1150.4729              1161.1582              1170.7452
 Red. masses --      1.1529                 1.4844                 1.4690
 Frc consts  --      0.8991                 1.1792                 1.1863
 IR Inten    --      1.4848                10.6564                20.1331

                     76                     77                     78
                      A                      A                      A
 Frequencies --   1171.4383              1186.7659              1198.3950
 Red. masses --      1.9406                 1.9141                 2.9604
 Frc consts  --      1.5690                 1.5883                 2.5049
 IR Inten    --     14.9033                23.8542                33.6969

                     79                     80                     81
                      A                      A                      A
 Frequencies --   1209.9011              1220.6866              1235.7903
 Red. masses --      4.7501                 5.4380                 5.2584
 Frc consts  --      4.0969                 4.7742                 4.7314
 IR Inten    --      4.1689                82.4017                25.6122

                     82                     83                     84
                      A                      A                      A
 Frequencies --   1247.9341              1264.5080              1288.9633
 Red. masses --      4.2691                 2.5717                 1.9733
 Frc consts  --      3.9171                 2.4228                 1.9316
 IR Inten    --     22.1209                 8.2227                33.5972

                     85                     86                     87
                      A                      A                      A
 Frequencies --   1312.0769              1343.1805              3663.6864
 Red. masses --      2.7613                 5.4616                 1.0809
 Frc consts  --      2.8008                 5.8054                 8.5479
 IR Inten    --     12.5447                12.1536                22.6537

                     88                     89                     90
                      A                      A                      A
 Frequencies --   4084.2931              4113.0812              4162.7593
 Red. masses --      1.0853                 1.0875                 1.0602
 Frc consts  --     10.6669                10.8397                10.8240
 IR Inten    --     44.2287                29.2344                42.0266

                     91                     92                     93
                      A                      A                      A
 Frequencies --   4167.2691              4176.4598              4182.1866
 Red. masses --      1.0602                 1.0591                 1.0593
 Frc consts  --     10.8474                10.8839                10.9163
 IR Inten    --     31.5981                29.0037                14.8886

                     94                     95                     96
                      A                      A                      A
 Frequencies --   4183.5390              4184.5379              4188.5049
 Red. masses --      1.0584                 1.0596                 1.0601
 Frc consts  --     10.9136                10.9318                10.9579
 IR Inten    --     19.2426                30.7265                51.7903

                     97                     98                     99
                      A                      A                      A
 Frequencies --   4189.0227              4191.2135              4210.9912
 Red. masses --      1.0612                 1.0615                 1.0866
 Frc consts  --     10.9721                10.9860                11.3526
 IR Inten    --     14.2754                26.9219                35.2952

                    100                    101                    102
                      A                      A                      A
 Frequencies --   4281.7051              4284.0584              4287.1101
 Red. masses --      1.1081                 1.1086                 1.1095
 Frc consts  --     11.9696                11.9874                12.0148
 IR Inten    --     13.0292                10.0908                11.0010

                    103                    104                    105
                      A                      A                      A
 Frequencies --   4291.4796              4298.0466              4300.5050
 Red. masses --      1.1098                 1.1116                 1.1082
 Frc consts  --     12.0422                12.0991                12.0751
 IR Inten    --     12.1407                 3.5788                 7.6255

                    106                    107                    108
                      A                      A                      A
 Frequencies --   4301.0743              4306.1568              4307.3559
 Red. masses --      1.1084                 1.1088                 1.1106
 Frc consts  --     12.0809                12.1144                12.1403
 IR Inten    --     14.9669                17.0266                14.4460

 - Thermochemistry -
 -------------------
 Temperature   298.150 Kelvin.  Pressure   1.00000 Atm.
 Atom     1 has atomic number  7 and mass  14.00307

 Molecular mass:   222.18445 amu.
 Principal axes and moments of inertia in atomic units:
                           1         2         3
     Eigenvalues --  2350.025132989.385934848.04409
           X            0.99988   0.01496   0.00492
           Y           -0.01493   0.99986  -0.00690
           Z           -0.00502   0.00683   0.99996
 This molecule is an asymmetric top.
 Rotational symmetry number  1.
 Warning -- assumption of classical behavior for rotation
           may cause significant error
 Rotational temperatures (Kelvin)      0.03686     0.02897     0.01787
 Rotational constants (GHZ):           0.76797     0.60372     0.37226
   18 imaginary frequencies ignored.
 Zero-point vibrational energy     915862.8 (Joules/Mol)
                                  218.89646 (Kcal/Mol)
 Warning -- explicit consideration of  11 degrees of freedom as
           vibrations may cause significant error
 Vibrational temperatures:    211.01   265.67   323.20   336.05   410.21
          (Kelvin)            529.39   679.34   686.26   755.22   783.25
                              834.58   911.76   929.85   951.24   966.06
                              981.27  1007.44  1030.46  1052.33  1062.95
                             1082.38  1115.56  1127.79  1155.22  1178.96
                             1211.91  1231.28  1243.67  1266.07  1304.44
                             1342.88  1356.05  1365.31  1371.46  1381.64
                             1393.71  1416.65  1424.23  1440.74  1449.99
                             1503.19  1515.19  1530.73  1546.00  1557.50
                             1574.61  1581.80  1586.29  1604.31  1613.21
                             1627.50  1632.99  1643.77  1650.80  1655.27
                             1670.65  1684.44  1685.44  1707.49  1724.22
                             1740.78  1756.30  1778.03  1795.50  1819.34
                             1854.53  1887.79  1932.54  5271.23  5876.39
                             5917.81  5989.28  5995.77  6008.99  6017.23
                             6019.18  6020.62  6026.32  6027.07  6030.22
                             6058.68  6160.42  6163.80  6168.20  6174.48
                             6183.93  6187.47  6188.29  6195.60  6197.32

 Zero-point correction=                           0.348834 (Hartree/Particle)
 Thermal correction to Energy=                    0.358544
 Thermal correction to Enthalpy=                  0.359488
 Thermal correction to Gibbs Free Energy=         0.314002
 Sum of electronic and zero-point Energies=           -687.669933
 Sum of electronic and thermal Energies=              -687.660223
 Sum of electronic and thermal Enthalpies=            -687.659279
 Sum of electronic and thermal Free Energies=         -687.704765

                     E (Thermal)             CV                S
                      KCal/Mol        Cal/Mol-Kelvin    Cal/Mol-Kelvin
 Total                  224.990             47.124             95.734
 Electronic               0.000              0.000              0.000
 Translational            0.889              2.981             42.098
 Rotational               0.889              2.981             31.899
 Vibrational            223.212             41.162             21.737
 Vibration     1          0.617              1.906              2.715
 Vibration     2          0.631              1.861              2.281
 Vibration     3          0.649              1.804              1.921
 Vibration     4          0.654              1.790              1.851
 Vibration     5          0.683              1.701              1.503
 Vibration     6          0.741              1.538              1.088
 Vibration     7          0.829              1.312              0.732
 Vibration     8          0.834              1.301              0.718
 Vibration     9          0.880              1.195              0.599
 Vibration    10          0.900              1.152              0.556
 Vibration    11          0.937              1.074              0.485

 1\1\GINC-JST289\Freq\RPBE1PBE\def2SVP\C12H22N4\LAPLAZA\04-Mar-2023\0\\
 #p pop=(regular,nbo,savenbos) freq=noraman def2svp empiricaldispersion
 =gd3bj output=wfx pbe1pbe\\TUYJAY_Complex_3_Ligand_0_NN_Cu_oriented\\0
 ,1\N,2.9954389,0.80966785,-2.16733559\C,2.10336353,0.19671843,-3.15754
 583\C,0.98680251,1.14819642,-3.48576513\N,0.20706047,1.3940642,-2.2606
 0196\C,-0.96342968,2.2162723,-2.58914674\C,-1.82600823,2.39639902,-1.3
 4666373\N,0.23298837,2.08152089,0.\C,1.50122492,1.50654323,2.05363363\
 C,2.50848724,0.58208817,1.38086291\N,2.0892231,0.19506908,0.\C,2.98505

 Normal termination of Gaussian 16 at Sat Mar  4 13:02:11 2023.
