 Gaussian 16, Revision C.01,
 Gaussian 16:  ES64L-G16RevC.01  3-Jul-2019

 ----------------------------------------------------------------------
 #p pop=(regular,nbo,savenbos) freq=noraman def2svp empiricaldispersion
 =gd3bj output=wfx pbe1pbe
 ----------------------------------------------------------------------

 ----------------------------------------
 UCEGEP_Complex_3_Ligand_0_NN_Cu_oriented
 ----------------------------------------
 Symbolic Z-matrix:
 Charge = -1 Multiplicity = 1

                         Standard orientation:
 ---------------------------------------------------------------------
 Center     Atomic      Atomic             Coordinates (Angstroms)
 Number     Number       Type             X           Y           Z
 ---------------------------------------------------------------------
      1         16           0        0.383986    1.799767    0.028229
      2          8           0        0.435234    2.425762   -1.256446
      3          7           0       -1.036999    1.100617    0.275457
      4          7           0       -3.421317    0.237051    0.586451
      5          6           0       -4.709880   -0.203968    0.896726
      6          1           0       -5.238634    0.245500    1.515957
      7          6           0       -5.171591   -1.343762    0.241515
      8          1           0       -6.004373   -1.685620    0.479451
      9          6           0       -4.471031   -1.968445   -0.714059
     10          1           0       -4.801404   -2.723006   -1.145171
     11          6           0       -3.328153   -1.480367   -1.006144
     12          1           0       -2.827569   -1.887890   -1.673817
     13          6           0       -2.822715   -0.407559   -0.389238
     14          6           0       -1.366059    0.147321   -0.742392
     15          1           0       -0.720083   -0.576642   -0.749637
     16          1           0       -1.366073    0.570846   -1.615789
     17          6           0        1.573640    0.461606    0.053881
     18          6           0        1.849862   -0.149641    1.234643
     19          6           0        2.741285   -1.177775    1.305777
     20          1           0        2.858770   -1.603710    2.124855
     21          6           0        3.502880   -1.634695    0.184923
     22          6           0        3.247411   -1.016181   -0.904615
     23          1           0        3.709388   -1.298787   -1.660376
     24          6           0        2.331917    0.059901   -1.084712
     25          6           0        4.532493   -2.754115    0.183643
     26          1           0        4.693568   -3.042213    1.084571
     27          1           0        5.351139   -2.435447   -0.200856
     28          1           0        4.201584   -3.491626   -0.333897
     29          6           0        1.191280    0.181663    2.586654
     30          1           0        0.237233    0.177174    2.486672
     31          1           0        1.477903    1.050010    2.878294
     32          1           0        1.448879   -0.475610    3.237512
     33          6           0        2.138360    0.636373   -2.443653
     34          1           0        2.642178    0.125392   -3.082140
     35          1           0        2.442707    1.546472   -2.451002
     36          1           0        1.207410    0.607454   -2.675313
     37          8           0        0.603969    2.653692    1.116194
 ---------------------------------------------------------------------

 SCF Done:  E(RPBE1PBE) =  -1237.74410727     A.U. after   15 cycles

 The electronic state is 1-A.
 Alpha  occ. eigenvalues --  -89.01911 -18.99383 -18.99312 -14.25906 -14.14488
 Alpha  occ. eigenvalues --  -10.14346 -10.13570 -10.12259 -10.11415 -10.11117
 Alpha  occ. eigenvalues --  -10.11044 -10.10991 -10.10249 -10.10125 -10.09440
 Alpha  occ. eigenvalues --  -10.08877 -10.08197 -10.07595 -10.06166 -10.05142
 Alpha  occ. eigenvalues --   -7.98752  -5.92997  -5.92878  -5.92755  -0.96206
 Alpha  occ. eigenvalues --   -0.84608  -0.83428  -0.77493  -0.73872  -0.71993
 Alpha  occ. eigenvalues --   -0.70522  -0.68790  -0.67587  -0.63568  -0.60991
 Alpha  occ. eigenvalues --   -0.59214  -0.56781  -0.55921  -0.51823  -0.49390
 Alpha  occ. eigenvalues --   -0.48080  -0.45804  -0.44754  -0.40068  -0.39405
 Alpha  occ. eigenvalues --   -0.39079  -0.37128  -0.36915  -0.34325  -0.33800
 Alpha  occ. eigenvalues --   -0.33699  -0.33605  -0.32853  -0.32415  -0.32034
 Alpha  occ. eigenvalues --   -0.31579  -0.30651  -0.29433  -0.29266  -0.28858
 Alpha  occ. eigenvalues --   -0.28080  -0.26737  -0.25316  -0.24426  -0.24277
 Alpha  occ. eigenvalues --   -0.21947  -0.19360  -0.17401  -0.16123  -0.15769
 Alpha  occ. eigenvalues --   -0.15125  -0.13562  -0.13284  -0.12194  -0.11848
 Alpha  occ. eigenvalues --   -0.07008  -0.03206
 Alpha virt. eigenvalues --    0.09450   0.11363   0.11535   0.13513   0.17889
 Alpha virt. eigenvalues --    0.18896   0.21368   0.22057   0.22169   0.23582
 Alpha virt. eigenvalues --    0.24337   0.24573   0.24897   0.26349   0.27385

 Mulliken charges:
               1
     1  S    0.799508
     2  O   -0.526233
     3  N   -0.570614
     4  N   -0.137535
     5  C    0.202072
     6  H   -0.095912
     7  C    0.005314
     8  H   -0.115940
     9  C    0.167569
    10  H   -0.128648
    11  C    0.108836
    12  H   -0.134334
    13  C   -0.131518
    14  C    0.383507
    15  H   -0.057852
    16  H   -0.051185
    17  C   -0.138789
    18  C   -0.138763
    19  C   -0.000939
    20  H   -0.163273
    21  C   -0.096133
    22  C    0.005979
    23  H   -0.172500
    24  C   -0.213493
    25  C    0.295118
    26  H   -0.050094
    27  H   -0.026558
    28  H   -0.021161
    29  C    0.366956
    30  H   -0.025898
    31  H   -0.018881
    32  H   -0.078375
    33  C    0.377632
    34  H   -0.080119
    35  H   -0.019557
    36  H   -0.025465
    37  O   -0.492724
 Sum of Mulliken charges =  -1.00000

 Dipole moment (field-independent basis, Debye):
    X=              0.7250    Y=             -8.9333    Z=             -1.6718  Tot=              9.1173
 Quadrupole moment (field-independent basis, Debye-Ang):
   XX=           -136.7417   YY=           -147.6808   ZZ=           -130.0385
   XY=              1.4059   XZ=              0.8905   YZ=              0.0923

  Exact polarizability:     231.774     -12.489     161.148     -14.736       6.025     164.750
 Approx polarizability:     296.293     -22.885     256.180     -31.203      18.239     270.059

 Summary of Natural Population Analysis:

                                       Natural Population
                Natural  -----------------------------------------------
    Atom  No    Charge         Core      Valence    Rydberg      Total
 -----------------------------------------------------------------------
      S    1    2.32876      9.99807     3.42658    0.24659    13.67124
      O    2   -1.03021      1.99976     7.02210    0.00835     9.03021
      N    3   -1.02295      1.99943     6.00672    0.01681     8.02295
      N    4   -0.44467      1.99928     5.42835    0.01704     7.44467
      C    5    0.09066      1.99913     3.88994    0.02027     5.90934
      H    6    0.14215      0.00000     0.85498    0.00287     0.85785
      C    7   -0.23760      1.99910     4.22473    0.01377     6.23760
      H    8    0.15730      0.00000     0.83876    0.00394     0.84270
      C    9   -0.16492      1.99901     4.15037    0.01554     6.16492
      H   10    0.16591      0.00000     0.83065    0.00344     0.83409
      C   11   -0.23086      1.99889     4.21620    0.01578     6.23086
      H   12    0.17187      0.00000     0.82416    0.00397     0.82813
      C   13    0.26946      1.99900     3.70105    0.03050     5.73054
      C   14   -0.19111      1.99901     4.17054    0.02156     6.19111
      H   15    0.15570      0.00000     0.83737    0.00694     0.84430
      H   16    0.16529      0.00000     0.82578    0.00893     0.83471
      C   17   -0.32649      1.99853     4.29412    0.03384     6.32649
      C   18    0.00704      1.99880     3.97476    0.01939     5.99296
      C   19   -0.20689      1.99890     4.19180    0.01619     6.20689
      H   20    0.15956      0.00000     0.83707    0.00337     0.84044
      C   21   -0.00534      1.99874     3.99030    0.01631     6.00534
      C   22   -0.23593      1.99872     4.22019    0.01702     6.23593
      H   23    0.15966      0.00000     0.83617    0.00418     0.84034
      C   24    0.02960      1.99902     3.95249    0.01890     5.97040
      C   25   -0.55455      1.99914     4.54618    0.00923     6.55455
      H   26    0.18600      0.00000     0.81131    0.00269     0.81400
      H   27    0.18820      0.00000     0.80901    0.00279     0.81180
      H   28    0.18954      0.00000     0.80766    0.00280     0.81046
      C   29   -0.54769      1.99911     4.53914    0.00944     6.54769
      H   30    0.21753      0.00000     0.77588    0.00659     0.78247
      H   31    0.20830      0.00000     0.78823    0.00347     0.79170
      H   32    0.16654      0.00000     0.83060    0.00286     0.83346
      C   33   -0.56170      1.99911     4.55324    0.00935     6.56170
      H   34    0.17023      0.00000     0.82664    0.00313     0.82977
      H   35    0.21284      0.00000     0.78314    0.00402     0.78716
      H   36    0.21346      0.00000     0.78299    0.00355     0.78654
      O   37   -0.99468      1.99974     6.98575    0.00919     8.99468
 =======================================================================
   * Total *   -1.00000     47.98046   105.38495    0.63458   154.00000

 ******   27 imaginary frequencies (negative Signs) ******

                      1                      2                      3
                      A                      A                      A
 Frequencies --  -1452.3781             -1415.2525             -1402.2819
 Red. masses --      1.0798                 1.0093                 1.0095
 Frc consts  --      1.3420                 1.1910                 1.1696
 IR Inten    --     46.1230                 0.0729                 0.1661

                      4                      5                      6
                      A                      A                      A
 Frequencies --  -1393.7617             -1350.2169             -1348.9027
 Red. masses --      1.0091                 1.0496                 1.0528
 Frc consts  --      1.1549                 1.1275                 1.1287
 IR Inten    --      0.5423                 8.5596                 6.7962

                      7                      8                      9
                      A                      A                      A
 Frequencies --  -1323.4496             -1283.2651             -1162.4992
 Red. masses --      1.0439                 1.0239                 1.0327
 Frc consts  --      1.0772                 0.9935                 0.8223
 IR Inten    --      6.3696                 0.6412                 0.1470

                     10                     11                     12
                      A                      A                      A
 Frequencies --  -1101.6852             -1033.0751             -1009.2028
 Red. masses --      1.0329                 1.0609                 1.0573
 Frc consts  --      0.7386                 0.6671                 0.6344
 IR Inten    --      3.3044                 3.5739                 7.0641

                     13                     14                     15
                      A                      A                      A
 Frequencies --  -1007.1328              -997.9599              -976.7898
 Red. masses --      1.0532                 1.0576                 1.0469
 Frc consts  --      0.6294                 0.6206                 0.5885
 IR Inten    --      3.2429                 7.4530                 2.2073

                     16                     17                     18
                      A                      A                      A
 Frequencies --   -971.5401              -924.9019              -850.5113
 Red. masses --      1.0311                 1.1083                 1.1204
 Frc consts  --      0.5734                 0.5586                 0.4775
 IR Inten    --     19.9660                 0.0021                 0.8247

                     19                     20                     21
                      A                      A                      A
 Frequencies --   -774.2824              -727.9312              -713.3088
 Red. masses --      1.0896                 1.1168                 1.1236
 Frc consts  --      0.3849                 0.3487                 0.3368
 IR Inten    --      1.5981                10.1753                12.4666

                     22                     23                     24
                      A                      A                      A
 Frequencies --   -702.8187              -611.2797              -414.3042
 Red. masses --      1.1418                 1.3870                 1.3331
 Frc consts  --      0.3323                 0.3053                 0.1348
 IR Inten    --      3.3074                10.8565                21.1836

                     25                     26                     27
                      A                      A                      A
 Frequencies --   -146.2314              -124.9393               -60.7172
 Red. masses --      7.4718                 7.9325                 9.2535
 Frc consts  --      0.0941                 0.0730                 0.0201
 IR Inten    --      1.1489                 0.4097                 0.6649

                     28                     29                     30
                      A                      A                      A
 Frequencies --     79.4423               131.6554               150.5943
 Red. masses --      7.2432                 8.2875                 7.6942
 Frc consts  --      0.0269                 0.0846                 0.1028
 IR Inten    --      0.2461                 1.0709                 2.4694

                     31                     32                     33
                      A                      A                      A
 Frequencies --    215.4617               242.4634               271.4769
 Red. masses --      6.8848                 8.3561                 8.2260
 Frc consts  --      0.1883                 0.2894                 0.3572
 IR Inten    --      2.1909                11.5883                 4.5654

                     34                     35                     36
                      A                      A                      A
 Frequencies --    293.8267               306.0176               315.8617
 Red. masses --      1.1959                 6.6598                 7.3430
 Frc consts  --      0.0608                 0.3675                 0.4316
 IR Inten    --      3.8567                 0.7730                 0.9740

                     37                     38                     39
                      A                      A                      A
 Frequencies --    350.0548               396.8521               401.5761
 Red. masses --      5.9623                 1.6223                 4.8903
 Frc consts  --      0.4305                 0.1505                 0.4646
 IR Inten    --      6.2348                11.8416                 2.3330

                     40                     41                     42
                      A                      A                      A
 Frequencies --    412.1325               438.9346               462.6230
 Red. masses --     10.7941                 7.6319                 3.4745
 Frc consts  --      1.0802                 0.8663                 0.4381
 IR Inten    --      1.0884                11.8659                 3.5221

                     43                     44                     45
                      A                      A                      A
 Frequencies --    476.9599               487.8599               505.8099
 Red. masses --      2.8013                 2.9257                 2.4510
 Frc consts  --      0.3755                 0.4103                 0.3695
 IR Inten    --     14.4704                 2.2384                 3.2292

                     46                     47                     48
                      A                      A                      A
 Frequencies --    544.8842               553.1236               577.7812
 Red. masses --      8.2752                 7.6302                 4.2768
 Frc consts  --      1.4476                 1.3754                 0.8412
 IR Inten    --     69.3640                73.8902                 8.4209

                     49                     50                     51
                      A                      A                      A
 Frequencies --    595.8381               633.6873               679.4830
 Red. masses --      4.3334                 5.7051                 4.9564
 Frc consts  --      0.9064                 1.3498                 1.3483
 IR Inten    --      0.4588                37.2451                14.0160

                     52                     53                     54
                      A                      A                      A
 Frequencies --    688.6408               699.0515               710.5587
 Red. masses --      5.0073                 7.1353                 5.4038
 Frc consts  --      1.3991                 2.0544                 1.6075
 IR Inten    --      2.3914                 1.3350                13.0002

                     55                     56                     57
                      A                      A                      A
 Frequencies --    721.8274               738.2685               745.2673
 Red. masses --      5.3150                 4.8654                 4.5041
 Frc consts  --      1.6316                 1.5624                 1.4740
 IR Inten    --      0.0858                50.0081                 2.8659

                     58                     59                     60
                      A                      A                      A
 Frequencies --    748.4856               794.2662               834.6226
 Red. masses --      4.4920                 4.2505                 7.8423
 Frc consts  --      1.4827                 1.5799                 3.2187
 IR Inten    --      6.6107                17.4275                11.5690

                     61                     62                     63
                      A                      A                      A
 Frequencies --    852.8880               889.5526               939.0948
 Red. masses --      4.8333                 4.6419                 1.2364
 Frc consts  --      2.0715                 2.1642                 0.6424
 IR Inten    --     16.0099                88.4706                31.7204

                     64                     65                     66
                      A                      A                      A
 Frequencies --    957.6528               962.1310               982.5915
 Red. masses --      1.2706                 1.1824                 2.1939
 Frc consts  --      0.6866                 0.6449                 1.2480
 IR Inten    --     96.1845                18.9758                 2.1994

                     67                     68                     69
                      A                      A                      A
 Frequencies --    987.8376              1006.8242              1014.0217
 Red. masses --      1.4365                 1.1035                 1.1215
 Frc consts  --      0.8259                 0.6591                 0.6794
 IR Inten    --      0.9413                10.9036                 9.3217

                     70                     71                     72
                      A                      A                      A
 Frequencies --   1017.7620              1034.7127              1037.3703
 Red. masses --      1.1721                 8.1278                 4.0168
 Frc consts  --      0.7153                 5.1270                 2.5468
 IR Inten    --      5.9895                 0.3848                 0.6831

                     73                     74                     75
                      A                      A                      A
 Frequencies --   1106.5665              1133.8730              1234.8718
 Red. masses --      8.1647                 7.0195                 6.2767
 Frc consts  --      5.8904                 5.3172                 5.6393
 IR Inten    --      5.8868                 0.7620               172.9589

                     76                     77                     78
                      A                      A                      A
 Frequencies --   1292.8754              1322.8895              1345.4384
 Red. masses --      8.4175                 7.7998                16.0604
 Frc consts  --      8.2898                 8.0423                17.1291
 IR Inten    --     14.7304                25.3314               269.5394

                     79                     80                     81
                      A                      A                      A
 Frequencies --   1380.4497              1424.0977              1428.2042
 Red. masses --      8.8558                 9.8450                 8.6309
 Frc consts  --      9.9430                11.7638                10.3726
 IR Inten    --      2.3377                60.9032                22.6464

                     82                     83                     84
                      A                      A                      A
 Frequencies --   1543.0190              1569.0711              1602.4092
 Red. masses --      8.5177                18.6346                11.6586
 Frc consts  --     11.9486                27.0306                17.6377
 IR Inten    --      0.6349               187.7420                67.6822

                     85                     86                     87
                      A                      A                      A
 Frequencies --   1696.7156              1812.7326              2016.5810
 Red. masses --      9.8412                10.5963                10.4278
 Frc consts  --     16.6923                20.5150                24.9847
 IR Inten    --      4.4505                11.5314                14.9557

                     88                     89                     90
                      A                      A                      A
 Frequencies --   2023.4183              4388.3355              4468.3723
 Red. masses --     10.0473                 1.0565                 1.0329
 Frc consts  --     24.2365                11.9867                12.1505
 IR Inten    --     20.6094                54.6863                20.8069

                     91                     92                     93
                      A                      A                      A
 Frequencies --   4473.1825              4474.8947              4508.3048
 Red. masses --      1.0324                 1.0320                 1.1101
 Frc consts  --     12.1706                12.1762                13.2937
 IR Inten    --     17.9169                20.9746                12.4190

                     94                     95                     96
                      A                      A                      A
 Frequencies --   4664.7689              4674.1037              4679.1231
 Red. masses --      1.1059                 1.1067                 1.1067
 Frc consts  --     14.1790                14.2452                14.2761
 IR Inten    --     10.7695                 5.8925                 3.1812

                     97                     98                     99
                      A                      A                      A
 Frequencies --   4685.1556              4687.2032              4690.3475
 Red. masses --      1.1064                 1.1069                 1.1066
 Frc consts  --     14.3086                14.3275                14.3433
 IR Inten    --      0.0732                 2.9124                 2.2852

                    100                    101                    102
                      A                      A                      A
 Frequencies --   5000.3720              5006.3925              5011.7625
 Red. masses --      1.0872                 1.0885                 1.0887
 Frc consts  --     16.0165                16.0740                16.1117
 IR Inten    --      7.3378                16.7360                 5.4550

                    103                    104                    105
                      A                      A                      A
 Frequencies --   5018.9315              5036.8376              5047.9123
 Red. masses --      1.0879                 1.0947                 1.0901
 Frc consts  --     16.1465                16.3624                16.3657
 IR Inten    --      4.7447                 5.9424                 3.8194

 - Thermochemistry -
 -------------------
 Temperature   298.150 Kelvin.  Pressure   1.00000 Atm.
 Atom     1 has atomic number 16 and mass  31.97207

 Molecular mass:   289.10107 amu.
 Principal axes and moments of inertia in atomic units:
                           1         2         3
     Eigenvalues --  3590.424829522.31726**********
           X            0.99993  -0.01147  -0.00159
           Y            0.01146   0.99992  -0.00487
           Z            0.00165   0.00485   0.99999
 This molecule is an asymmetric top.
 Rotational symmetry number  1.
 Warning -- assumption of classical behavior for rotation
           may cause significant error
 Rotational temperatures (Kelvin)      0.02412     0.00910     0.00827
 Rotational constants (GHZ):           0.50265     0.18953     0.17239
   27 imaginary frequencies ignored.
 Zero-point vibrational energy     791551.3 (Joules/Mol)
                                  189.18530 (Kcal/Mol)
 Warning -- explicit consideration of  22 degrees of freedom as
           vibrations may cause significant error
 Vibrational temperatures:    114.30   189.42   216.67   310.00   348.85
          (Kelvin)            390.59   422.75   440.29   454.45   503.65
                              570.98   577.78   592.97   631.53   665.61
                              686.24   701.92   727.75   783.97   795.82
                              831.30   857.28   911.73   977.62   990.80
                             1005.78  1022.34  1038.55  1062.20  1072.27
                             1076.90  1142.77  1200.84  1227.12  1279.87
                             1351.15  1377.85  1384.29  1413.73  1421.28
                             1448.60  1458.95  1464.33  1488.72  1492.54
                             1592.10  1631.39  1776.71  1860.16  1903.34
                             1935.79  1986.16  2048.96  2054.87  2220.06
                             2257.54  2305.51  2441.20  2608.12  2901.41
                             2911.25  6313.84  6428.99  6435.91  6438.38
                             6486.45  6711.56  6724.99  6732.21  6740.89
                             6743.84  6748.36  7194.42  7203.08  7210.81
                             7221.12  7246.89  7262.82

 Zero-point correction=                           0.301486 (Hartree/Particle)
 Thermal correction to Energy=                    0.314133
 Thermal correction to Enthalpy=                  0.315077
 Thermal correction to Gibbs Free Energy=         0.262561
 Sum of electronic and zero-point Energies=          -1237.442621
 Sum of electronic and thermal Energies=             -1237.429974
 Sum of electronic and thermal Enthalpies=           -1237.429030
 Sum of electronic and thermal Free Energies=        -1237.481547

                     E (Thermal)             CV                S
                      KCal/Mol        Cal/Mol-Kelvin    Cal/Mol-Kelvin
 Total                  197.121             54.189            110.531
 Electronic               0.000              0.000              0.000
 Translational            0.889              2.981             42.882
 Rotational               0.889              2.981             34.236
 Vibrational            195.344             48.228             33.412
 Vibration     1          0.600              1.963              3.905
 Vibration     2          0.612              1.922              2.922
 Vibration     3          0.618              1.902              2.665
 Vibration     4          0.645              1.817              1.997
 Vibration     5          0.659              1.775              1.785
 Vibration     6          0.675              1.726              1.587
 Vibration     7          0.689              1.685              1.452
 Vibration     8          0.696              1.662              1.384
 Vibration     9          0.703              1.643              1.331
 Vibration    10          0.727              1.575              1.166
 Vibration    11          0.763              1.477              0.974
 Vibration    12          0.767              1.467              0.957
 Vibration    13          0.776              1.444              0.919
 Vibration    14          0.799              1.385              0.830
 Vibration    15          0.820              1.333              0.759
 Vibration    16          0.834              1.301              0.718
 Vibration    17          0.844              1.277              0.689
 Vibration    18          0.861              1.237              0.644
 Vibration    19          0.900              1.151              0.555
 Vibration    20          0.908              1.133              0.538
 Vibration    21          0.934              1.079              0.489
 Vibration    22          0.954              1.041              0.457

 Normal termination of Gaussian 16 at Mon Mar  6 11:27:29 2023.
