 Gaussian 16, Revision C.01,
 Gaussian 16:  ES64L-G16RevC.01  3-Jul-2019

 ----------------------------------------------------------------------
 #p pop=(regular,nbo,savenbos) freq=noraman def2svp empiricaldispersion
 =gd3bj output=wfx pbe1pbe
 ----------------------------------------------------------------------

 ----------------------------------------
 UCUGAB_Complex_1_Ligand_0_NN_Cu_oriented
 ----------------------------------------
 Symbolic Z-matrix:
 Charge = -1 Multiplicity = 1

                         Standard orientation:
 ---------------------------------------------------------------------
 Center     Atomic      Atomic             Coordinates (Angstroms)
 Number     Number       Type             X           Y           Z
 ---------------------------------------------------------------------
      1          6           0       -0.310943   -0.662643   -0.066802
      2         16           0       -2.001533   -1.210374   -0.171683
      3          8           0       -2.077294   -2.038343   -1.359389
      4          7           0       -2.909791    0.051641   -0.338892
      5          6           0       -3.204746    0.758743    0.929739
      6          1           0       -2.399744    0.784733    1.506276
      7          1           0       -3.930455    0.298874    1.421299
      8          6           0       -3.628613    2.158406    0.556228
      9          1           0       -4.052778    2.606255    1.329597
     10          1           0       -2.842512    2.690673    0.274885
     11          7           0       -4.591145    2.041294   -0.557285
     12          1           0       -4.794451    2.872003   -0.896109
     13          1           0       -5.367614    1.640236   -0.271133
     14          6           0        0.660913   -1.548077    0.386836
     15          1           0        0.412265   -2.414338    0.687510
     16          6           0        1.981265   -1.166779    0.400604
     17          1           0        2.636416   -1.781191    0.707239
     18          6           0        2.385228    0.103195   -0.024460
     19          6           0        1.400235    0.968997   -0.482774
     20          1           0        1.644248    1.836217   -0.785227
     21          6           0        0.059412    0.590352   -0.505930
     22          1           0       -0.599396    1.194880   -0.825336
     23          6           0        3.872817    0.479312    0.011242
     24          6           0        4.419654    0.190030    1.410054
     25          1           0        4.349477   -0.769144    1.595652
     26          1           0        3.901173    0.690475    2.074065
     27          1           0        5.359227    0.464944    1.456264
     28          6           0        4.096763    1.958114   -0.277637
     29          1           0        5.052204    2.164043   -0.202818
     30          1           0        3.593694    2.497154    0.368585
     31          1           0        3.788062    2.163267   -1.184853
     32          6           0        4.624414   -0.349388   -1.037472
     33          1           0        4.494852   -1.303278   -0.854373
     34          1           0        5.579460   -0.136656   -0.998306
     35          1           0        4.279446   -0.136594   -1.929504
     36          8           0       -2.261567   -1.902743    1.077974
 ---------------------------------------------------------------------

 SCF Done:  E(RPBE1PBE) =  -1124.96951333     A.U. after   14 cycles

 The electronic state is 1-A.
 Alpha  occ. eigenvalues --  -89.00757 -18.97975 -18.97934 -14.20269 -14.13850
 Alpha  occ. eigenvalues --  -10.15294 -10.12436 -10.10385 -10.10360 -10.10335
 Alpha  occ. eigenvalues --  -10.10325 -10.10266 -10.10029 -10.09729 -10.09467
 Alpha  occ. eigenvalues --  -10.08739 -10.06594  -7.97534  -5.91760  -5.91663
 Alpha  occ. eigenvalues --   -5.91559  -0.92975  -0.80321  -0.78229  -0.77730
 Alpha  occ. eigenvalues --   -0.74440  -0.70030  -0.66302  -0.64909  -0.64797
 Alpha  occ. eigenvalues --   -0.64349  -0.59743  -0.53629  -0.52183  -0.49260
 Alpha  occ. eigenvalues --   -0.47643  -0.45023  -0.41147  -0.39075  -0.39056
 Alpha  occ. eigenvalues --   -0.39007  -0.36893  -0.36780  -0.35513  -0.34799
 Alpha  occ. eigenvalues --   -0.33699  -0.32859  -0.32644  -0.32201  -0.31956
 Alpha  occ. eigenvalues --   -0.29335  -0.27952  -0.27644  -0.26889  -0.26450
 Alpha  occ. eigenvalues --   -0.25004  -0.24437  -0.23833  -0.23327  -0.22967
 Alpha  occ. eigenvalues --   -0.15841  -0.15491  -0.14836  -0.13215  -0.10966
 Alpha  occ. eigenvalues --   -0.10382  -0.10035  -0.05378  -0.03721
 Alpha virt. eigenvalues --    0.11499   0.11549   0.15599   0.19950   0.20235
 Alpha virt. eigenvalues --    0.20690   0.21790   0.22250   0.23766   0.23850
 Alpha virt. eigenvalues --    0.24784   0.25660   0.26542   0.26805   0.28293

 Mulliken charges:
               1
     1  C   -0.076731
     2  S    0.856847
     3  O   -0.546527
     4  N   -0.584336
     5  C    0.216824
     6  H   -0.059685
     7  H   -0.052528
     8  C    0.161425
     9  H   -0.070452
    10  H   -0.045343
    11  N   -0.174812
    12  H    0.028738
    13  H    0.043822
    14  C    0.130010
    15  H   -0.106924
    16  C    0.022823
    17  H   -0.116866
    18  C    0.076726
    19  C    0.025896
    20  H   -0.123270
    21  C    0.108151
    22  H   -0.114242
    23  C   -0.506083
    24  C    0.231279
    25  H   -0.026793
    26  H   -0.015495
    27  H   -0.042684
    28  C    0.247160
    29  H   -0.040125
    30  H   -0.020430
    31  H   -0.016365
    32  C    0.249559
    33  H   -0.029006
    34  H   -0.040860
    35  H   -0.018460
    36  O   -0.571242
 Sum of Mulliken charges =  -1.00000

 Dipole moment (field-independent basis, Debye):
    X=             10.2731    Y=              5.9108    Z=              2.2068  Tot=             12.0558
 Quadrupole moment (field-independent basis, Debye-Ang):
   XX=           -140.4674   YY=           -121.7309   ZZ=           -122.2284
   XY=            -15.2521   XZ=             -6.6271   YZ=             -2.0822

  Exact polarizability:     208.551       0.103     147.524       1.146      -5.017     114.716
 Approx polarizability:     255.146       3.187     231.153       7.379     -16.219     179.183

 Summary of Natural Population Analysis:

                                       Natural Population
                Natural  -----------------------------------------------
    Atom  No    Charge         Core      Valence    Rydberg      Total
 -----------------------------------------------------------------------
      C    1   -0.27461      1.99886     4.24296    0.03279     6.27461
      S    2    2.30297      9.99793     3.45920    0.23989    13.69703
      O    3   -0.98725      1.99977     6.97889    0.00859     8.98725
      N    4   -1.06805      1.99942     6.05236    0.01627     8.06805
      C    5   -0.18272      1.99912     4.16591    0.01769     6.18272
      H    6    0.16238      0.00000     0.83137    0.00625     0.83762
      H    7    0.15730      0.00000     0.83567    0.00704     0.84270
      C    8   -0.15482      1.99911     4.14255    0.01315     6.15482
      H    9    0.13778      0.00000     0.85758    0.00464     0.86222
      H   10    0.16491      0.00000     0.83030    0.00480     0.83509
      N   11   -0.80518      1.99946     5.78515    0.02057     7.80518
      H   12    0.30960      0.00000     0.68445    0.00595     0.69040
      H   13    0.31633      0.00000     0.67754    0.00613     0.68367
      C   14   -0.14864      1.99900     4.13099    0.01866     6.14864
      H   15    0.18972      0.00000     0.80503    0.00526     0.81028
      C   16   -0.20457      1.99900     4.18991    0.01566     6.20457
      H   17    0.16890      0.00000     0.82766    0.00344     0.83110
      C   18   -0.05780      1.99896     4.03777    0.02106     6.05780
      C   19   -0.20229      1.99897     4.18827    0.01505     6.20229
      H   20    0.17218      0.00000     0.82455    0.00328     0.82782
      C   21   -0.16364      1.99897     4.14562    0.01906     6.16364
      H   22    0.19688      0.00000     0.79594    0.00718     0.80312
      C   23   -0.02815      1.99906     4.01456    0.01452     6.02815
      C   24   -0.55915      1.99916     4.54707    0.01292     6.55915
      H   25    0.19114      0.00000     0.80638    0.00248     0.80886
      H   26    0.19729      0.00000     0.79999    0.00272     0.80271
      H   27    0.18190      0.00000     0.81506    0.00304     0.81810
      C   28   -0.57332      1.99918     4.56155    0.01259     6.57332
      H   29    0.18803      0.00000     0.80910    0.00287     0.81197
      H   30    0.19684      0.00000     0.80016    0.00300     0.80316
      H   31    0.19391      0.00000     0.80312    0.00297     0.80609
      C   32   -0.55544      1.99915     4.54339    0.01289     6.55544
      H   33    0.19363      0.00000     0.80391    0.00246     0.80637
      H   34    0.18030      0.00000     0.81665    0.00305     0.81970
      H   35    0.19608      0.00000     0.80122    0.00270     0.80392
      O   36   -1.03242      1.99978     7.02435    0.00830     9.03242
 =======================================================================
   * Total *   -1.00000     41.98491    95.43618    0.57891   138.00000

 ******   25 imaginary frequencies (negative Signs) ******

                      1                      2                      3
                      A                      A                      A
 Frequencies --  -1361.5122             -1236.0174             -1226.5245
 Red. masses --      1.0354                 1.0670                 1.0095
 Frc consts  --      1.1308                 0.9604                 0.8948
 IR Inten    --     49.8936                39.1481                 0.3269

                      4                      5                      6
                      A                      A                      A
 Frequencies --  -1218.1837             -1203.7816             -1172.7884
 Red. masses --      1.0091                 1.0092                 1.0842
 Frc consts  --      0.8823                 0.8616                 0.8786
 IR Inten    --      0.2260                 0.1188                62.9152

                      7                      8                      9
                      A                      A                      A
 Frequencies --  -1170.2883             -1042.0552             -1009.4331
 Red. masses --      1.0990                 1.0158                 1.0327
 Frc consts  --      0.8868                 0.6499                 0.6200
 IR Inten    --     72.3028                 0.0692                 0.3338

                     10                     11                     12
                      A                      A                      A
 Frequencies --   -908.9442              -872.6359              -828.8531
 Red. masses --      1.0407                 1.0672                 1.0953
 Frc consts  --      0.5066                 0.4788                 0.4433
 IR Inten    --      4.3860                 0.7519                21.6938

                     13                     14                     15
                      A                      A                      A
 Frequencies --   -815.8841              -810.2085              -782.1461
 Red. masses --      1.0743                 1.0766                 1.0462
 Frc consts  --      0.4214                 0.4164                 0.3771
 IR Inten    --      2.2357                 3.3618                 0.0598

                     16                     17                     18
                      A                      A                      A
 Frequencies --   -762.4140              -756.9491              -727.4721
 Red. masses --      1.0396                 1.0397                 1.1446
 Frc consts  --      0.3561                 0.3510                 0.3569
 IR Inten    --      0.3723                 0.4684                 0.6116

                     19                     20                     21
                      A                      A                      A
 Frequencies --   -647.0425              -613.2586              -564.7824
 Red. masses --      1.1554                 1.1187                 1.1804
 Frc consts  --      0.2850                 0.2479                 0.2218
 IR Inten    --     10.1535                12.3558                 2.5349

                     22                     23                     24
                      A                      A                      A
 Frequencies --   -380.1205              -332.0676              -292.1691
 Red. masses --      1.7005                 1.0545                 2.8212
 Frc consts  --      0.1448                 0.0685                 0.1419
 IR Inten    --      5.4892                17.4836                 1.6507

                     25                     26                     27
                      A                      A                      A
 Frequencies --   -160.6392                44.7280               111.4207
 Red. masses --      2.7131                 8.7868                 2.8271
 Frc consts  --      0.0412                 0.0104                 0.0207
 IR Inten    --      0.6906                 0.8829                 1.1549

                     28                     29                     30
                      A                      A                      A
 Frequencies --    144.4375               184.5594               206.0000
 Red. masses --      6.0862                 8.5139                 8.4385
 Frc consts  --      0.0748                 0.1709                 0.2110
 IR Inten    --      0.2549                 0.5064                 0.1032

                     31                     32                     33
                      A                      A                      A
 Frequencies --    232.6397               278.2310               300.3948
 Red. masses --      6.2182                 7.9976                 5.3838
 Frc consts  --      0.1983                 0.3648                 0.2862
 IR Inten    --      2.0728                 2.9017                 0.3356

                     34                     35                     36
                      A                      A                      A
 Frequencies --    354.9769               410.9342               460.3213
 Red. masses --      7.9678                 4.2015                 6.7616
 Frc consts  --      0.5915                 0.4180                 0.8442
 IR Inten    --      0.3481                29.3990                26.7649

                     37                     38                     39
                      A                      A                      A
 Frequencies --    474.9829               508.5089               530.4640
 Red. masses --      4.4059                 5.0188                 5.3816
 Frc consts  --      0.5857                 0.7646                 0.8922
 IR Inten    --     18.7399                 0.9015                 4.4361

                     40                     41                     42
                      A                      A                      A
 Frequencies --    547.8484               565.1774               609.8317
 Red. masses --      9.1440                 6.3349                 8.0945
 Frc consts  --      1.6170                 1.1922                 1.7736
 IR Inten    --      1.6738                14.6403                37.3970

                     43                     44                     45
                      A                      A                      A
 Frequencies --    640.2554               679.6841               686.1701
 Red. masses --      5.3446                 5.5256                 3.3646
 Frc consts  --      1.2908                 1.5040                 0.9334
 IR Inten    --    189.8849                 7.8929                 4.3672

                     46                     47                     48
                      A                      A                      A
 Frequencies --    700.6193               702.4308               709.4563
 Red. masses --      1.1885                 6.5124                 1.3326
 Frc consts  --      0.3437                 1.8932                 0.3952
 IR Inten    --     21.9442                 8.3135                19.3092

                     49                     50                     51
                      A                      A                      A
 Frequencies --    710.4899               737.1678               740.0902
 Red. masses --      4.2097                 2.1380                 1.3770
 Frc consts  --      1.2520                 0.6845                 0.4444
 IR Inten    --      7.1725                22.0469                26.2379

                     52                     53                     54
                      A                      A                      A
 Frequencies --    760.1826               778.6843               811.7009
 Red. masses --      2.7076                 3.3212                 2.1511
 Frc consts  --      0.9219                 1.1865                 0.8350
 IR Inten    --      0.2652                 1.1582                23.1658

                     55                     56                     57
                      A                      A                      A
 Frequencies --    818.2144               869.1986               897.2520
 Red. masses --      3.4316                 3.9690                 1.7601
 Frc consts  --      1.3536                 1.7667                 0.8349
 IR Inten    --      3.5018                14.5771                21.9313

                     58                     59                     60
                      A                      A                      A
 Frequencies --    928.1508               956.0071              1032.1624
 Red. masses --      3.1165                 3.8608                 2.9035
 Frc consts  --      1.5818                 2.0790                 1.8225
 IR Inten    --     17.7901                50.1277                46.3152

                     61                     62                     63
                      A                      A                      A
 Frequencies --   1074.6192              1088.4811              1091.3423
 Red. masses --      2.9638                 1.1898                 1.4757
 Frc consts  --      2.0165                 0.8306                 1.0356
 IR Inten    --     45.0054                15.2546                 8.2656

                     64                     65                     66
                      A                      A                      A
 Frequencies --   1092.1371              1096.3859              1107.7274
 Red. masses --      1.1023                 1.9446                 1.0385
 Frc consts  --      0.7747                 1.3772                 0.7508
 IR Inten    --      4.0666                22.8872                 1.3643

                     67                     68                     69
                      A                      A                      A
 Frequencies --   1110.2643              1116.1520              1140.4607
 Red. masses --      1.7201                 1.0612                 1.2178
 Frc consts  --      1.2493                 0.7789                 0.9332
 IR Inten    --     49.7614                 3.9610                25.7290

                     70                     71                     72
                      A                      A                      A
 Frequencies --   1161.2002              1171.4513              1184.3931
 Red. masses --      1.9848                 2.5494                 3.1983
 Frc consts  --      1.5768                 2.0613                 2.6434
 IR Inten    --     18.4172                52.4532                34.0007

                     73                     74                     75
                      A                      A                      A
 Frequencies --   1219.6119              1258.6323              1264.6826
 Red. masses --      1.4081                13.0020                 3.0708
 Frc consts  --      1.2340                12.1355                 2.8938
 IR Inten    --     29.7025               326.7845                 0.9328

                     76                     77                     78
                      A                      A                      A
 Frequencies --   1271.3441              1298.1043              1385.7868
 Red. masses --      3.3405                 3.5492                20.0741
 Frc consts  --      3.1811                 3.5237                22.7132
 IR Inten    --      4.5272                 0.2491               226.1648

                     79                     80                     81
                      A                      A                      A
 Frequencies --   1396.3741              1439.0222              1444.6421
 Red. masses --      8.9573                 8.5478                 9.2010
 Frc consts  --     10.2903                10.4289                11.3138
 IR Inten    --      1.9876                 9.8120                 0.3845

                     82                     83                     84
                      A                      A                      A
 Frequencies --   1657.8353              1674.1706              4161.7337
 Red. masses --     11.2066                10.3371                 1.0573
 Frc consts  --     18.1470                17.0706                10.7889
 IR Inten    --      0.2119                 4.9449                28.4213

                     85                     86                     87
                      A                      A                      A
 Frequencies --   4174.6248              4228.6738              4234.7744
 Red. masses --      1.0592                 1.0320                 1.0319
 Frc consts  --     10.8760                10.8725                10.9033
 IR Inten    --     97.8758                13.0889                15.2293

                     88                     89                     90
                      A                      A                      A
 Frequencies --   4237.4886              4275.3921              4291.0102
 Red. masses --      1.0320                 1.1108                 1.1097
 Frc consts  --     10.9180                11.9632                12.0388
 IR Inten    --     21.8970                20.1048                61.2629

                     91                     92                     93
                      A                      A                      A
 Frequencies --   4417.5903              4422.0299              4422.3026
 Red. masses --      1.1069                 1.1065                 1.1065
 Frc consts  --     12.7269                12.7476                12.7500
 IR Inten    --      8.2276                19.9523                 6.4481

                     94                     95                     96
                      A                      A                      A
 Frequencies --   4428.6316              4431.2519              4432.8855
 Red. masses --      1.1065                 1.1070                 1.1067
 Frc consts  --     12.7859                12.8070                12.8135
 IR Inten    --     23.0037                 4.7760                 6.6756

                     97                     98                     99
                      A                      A                      A
 Frequencies --   4759.7056              4765.2867              4777.0999
 Red. masses --      1.0879                 1.0871                 1.0912
 Frc consts  --     14.5210                14.5442                14.6712
 IR Inten    --      2.6843                 3.5195                 4.7739

                    100                    101                    102
                      A                      A                      A
 Frequencies --   4779.5233              4805.4105              4938.3198
 Red. masses --      1.0903                 1.0496                 1.0957
 Frc consts  --     14.6752                14.2803                15.7441
 IR Inten    --      6.8573                 0.9601                 2.8861

 - Thermochemistry -
 -------------------
 Temperature   298.150 Kelvin.  Pressure   1.00000 Atm.
 Atom     1 has atomic number  6 and mass  12.00000

 Molecular mass:   255.11672 amu.
 Principal axes and moments of inertia in atomic units:
                           1         2         3
     Eigenvalues --  2172.128828668.426489827.24795
           X            0.99992  -0.01262  -0.00318
           Y            0.01260   0.99990  -0.00595
           Z            0.00325   0.00591   0.99998
 This molecule is an asymmetric top.
 Rotational symmetry number  1.
 Warning -- assumption of classical behavior for rotation
           may cause significant error
 Rotational temperatures (Kelvin)      0.03988     0.00999     0.00881
 Rotational constants (GHZ):           0.83086     0.20820     0.18365
   25 imaginary frequencies ignored.
 Zero-point vibrational energy     800612.3 (Joules/Mol)
                                  191.35094 (Kcal/Mol)
 Warning -- explicit consideration of  17 degrees of freedom as
           vibrations may cause significant error
 Vibrational temperatures:     64.35   160.31   207.81   265.54   296.39
          (Kelvin)            334.72   400.31   432.20   510.73   591.24
                              662.30   683.39   731.63   763.22   788.23
                              813.16   877.41   921.18   977.91   987.25
                             1008.03  1010.64  1020.75  1022.24  1060.62
                             1064.82  1093.73  1120.35  1167.86  1177.23
                             1250.58  1290.95  1335.40  1375.48  1485.05
                             1546.14  1566.08  1570.20  1571.34  1577.45
                             1593.77  1597.42  1605.89  1640.87  1670.71
                             1685.46  1704.08  1754.75  1810.89  1819.60
                             1829.18  1867.68  1993.84  2009.07  2070.43
                             2078.52  2385.26  2408.76  5987.81  6006.35
                             6084.12  6092.90  6096.80  6151.34  6173.81
                             6355.93  6362.31  6362.71  6371.81  6375.58
                             6377.93  6848.15  6856.18  6873.18  6876.67
                             6913.91  7105.14

 Zero-point correction=                           0.304937 (Hartree/Particle)
 Thermal correction to Energy=                    0.316555
 Thermal correction to Enthalpy=                  0.317499
 Thermal correction to Gibbs Free Energy=         0.266305
 Sum of electronic and zero-point Energies=          -1124.664576
 Sum of electronic and thermal Energies=             -1124.652959
 Sum of electronic and thermal Enthalpies=           -1124.652015
 Sum of electronic and thermal Free Energies=        -1124.703208

                     E (Thermal)             CV                S
                      KCal/Mol        Cal/Mol-Kelvin    Cal/Mol-Kelvin
 Total                  198.641             48.893            107.746
 Electronic               0.000              0.000              0.000
 Translational            0.889              2.981             42.510
 Rotational               0.889              2.981             33.581
 Vibrational            196.864             42.931             31.656
 Vibration     1          0.595              1.980              5.038
 Vibration     2          0.607              1.940              3.244
 Vibration     3          0.616              1.909              2.744
 Vibration     4          0.631              1.861              2.282
 Vibration     5          0.640              1.831              2.079
 Vibration     6          0.653              1.791              1.858
 Vibration     7          0.679              1.714              1.545
 Vibration     8          0.693              1.673              1.415
 Vibration     9          0.731              1.565              1.144
 Vibration    10          0.775              1.446              0.923
 Vibration    11          0.818              1.338              0.765
 Vibration    12          0.832              1.306              0.724
 Vibration    13          0.864              1.231              0.637
 Vibration    14          0.885              1.183              0.586
 Vibration    15          0.903              1.144              0.549
 Vibration    16          0.921              1.107              0.514
 Vibration    17          0.969              1.011              0.433

 Normal termination of Gaussian 16 at Mon Mar  6 11:12:54 2023.
