 Gaussian 16, Revision C.01,
 Gaussian 16:  ES64L-G16RevC.01  3-Jul-2019

 ----------------------------------------------------------------------
 #p pop=(regular,nbo,savenbos) freq=noraman def2svp empiricaldispersion
 =gd3bj output=wfx pbe1pbe
 ----------------------------------------------------------------------

 ----------------------------------------
 UGUWID_Complex_0_Ligand_1_NN_Cu_oriented
 ----------------------------------------
 Symbolic Z-matrix:
 Charge = -2 Multiplicity = 1

                         Standard orientation:
 ---------------------------------------------------------------------
 Center     Atomic      Atomic             Coordinates (Angstroms)
 Number     Number       Type             X           Y           Z
 ---------------------------------------------------------------------
      1         16           0        2.783103   -1.144207    0.849486
      2         16           0       -2.844727   -1.286370   -0.304871
      3          8           0        2.898052   -1.040256    2.298256
      4          8           0        3.432988   -2.283193    0.228042
      5          8           0       -3.404921   -2.194589    0.671042
      6          7           0        1.263123   -1.022894    0.466343
      7          7           0       -1.296287   -1.156985   -0.055243
      8          6           0        0.925845   -1.136162   -0.957572
      9          1           0        1.449586   -0.559249   -1.478664
     10          1           0        1.022279   -2.034923   -1.278037
     11          6           0       -0.471711   -0.598957   -1.146270
     12          1           0       -0.797975   -0.866417   -2.003144
     13          1           0       -0.425740    0.381259   -1.124766
     14          6           0        3.545379    0.282099    0.136592
     15          6           0        3.457942    1.508596    0.797000
     16          1           0        3.029350    1.589270    1.621635
     17          6           0        4.062508    2.625934    0.251709
     18          1           0        4.075138    3.415737    0.767204
     19          6           0        4.763020    2.530540   -0.938927
     20          1           0        5.259566    3.197008   -1.375341
     21          6           0        4.858268    1.326826   -1.571525
     22          1           0        5.368177    1.265840   -2.234422
     23          6           0        4.258378    0.190909   -1.035152
     24          1           0        4.306363   -0.782149   -1.336549
     25          6           0       -3.591925    0.298983    0.033719
     26          6           0       -3.397119    2.644691    0.514406
     27          6           0       -2.804394    1.417440    0.291117
     28          1           0       -1.903641    1.414325    0.421962
     29          8           0       -3.149974   -1.562017   -1.695892
     30          6           0       -4.981322    0.407607   -0.004010
     31          6           0       -5.567735    1.639450    0.260787
     32          1           0       -6.443641    1.559190    0.156803
     33          6           0       -4.778464    2.759418    0.512179
     34          1           0       -5.155858    3.601964    0.719606
     35          1           0       -2.955541    3.440012    0.866984
     36          1           0       -5.491112   -0.217270   -0.190711
 ---------------------------------------------------------------------

 SCF Done:  E(RPBE1PBE) =  -1745.83417335     A.U. after   16 cycles

 The electronic state is 1-A.
 Alpha  occ. eigenvalues --  -88.92431 -88.92000 -18.90060 -18.89968 -18.89716
 Alpha  occ. eigenvalues --  -18.89605 -14.04904 -14.03854 -10.03402 -10.03116
 Alpha  occ. eigenvalues --  -10.02733 -10.02715 -10.02622 -10.02407 -10.01951
 Alpha  occ. eigenvalues --  -10.01770 -10.01651 -10.01614 -10.01583 -10.01331
 Alpha  occ. eigenvalues --   -9.94752  -9.94500  -7.89168  -7.88738  -5.83405
 Alpha  occ. eigenvalues --   -5.83322  -5.83168  -5.82977  -5.82884  -5.82737
 Alpha  occ. eigenvalues --   -0.84562  -0.84440  -0.72312  -0.72155  -0.68709
 Alpha  occ. eigenvalues --   -0.68543  -0.62302  -0.59654  -0.59255  -0.58485
 Alpha  occ. eigenvalues --   -0.57608  -0.56916  -0.49218  -0.45969  -0.45211
 Alpha  occ. eigenvalues --   -0.44916  -0.44120  -0.39497  -0.38458  -0.37106
 Alpha  occ. eigenvalues --   -0.33985  -0.32815  -0.29724  -0.28599  -0.27476
 Alpha  occ. eigenvalues --   -0.27100  -0.26098  -0.25615  -0.25410  -0.23990
 Alpha  occ. eigenvalues --   -0.22368  -0.22174  -0.19861  -0.19468  -0.19126
 Alpha  occ. eigenvalues --   -0.18801  -0.18549  -0.17815  -0.17746  -0.16875
 Alpha  occ. eigenvalues --   -0.15867  -0.14048  -0.12062  -0.08608  -0.07927
 Alpha  occ. eigenvalues --   -0.07582  -0.07440  -0.06878  -0.06547  -0.05331
 Alpha  occ. eigenvalues --   -0.04457  -0.03648  -0.02783  -0.02413  -0.01707
 Alpha  occ. eigenvalues --    0.02639   0.04618   0.06266   0.06877
 Alpha virt. eigenvalues --    0.18702   0.19110   0.19373   0.19827   0.26875
 Alpha virt. eigenvalues --    0.27148   0.29756   0.30345   0.32291   0.32893
 Alpha virt. eigenvalues --    0.34368   0.34657   0.35101   0.36790   0.37097

 Mulliken charges:
               1
     1  S    0.859213
     2  S    0.848475
     3  O   -0.565288
     4  O   -0.567941
     5  O   -0.564146
     6  N   -0.545877
     7  N   -0.566260
     8  C    0.319491
     9  H   -0.125932
    10  H   -0.080513
    11  C    0.275997
    12  H   -0.099266
    13  H   -0.094850
    14  C   -0.140113
    15  C    0.131673
    16  H   -0.118154
    17  C    0.068729
    18  H   -0.117311
    19  C    0.069124
    20  H   -0.133999
    21  C    0.169019
    22  H   -0.229451
    23  C    0.051494
    24  H   -0.045889
    25  C   -0.034508
    26  C    0.027624
    27  C    0.134393
    28  H   -0.109289
    29  O   -0.577996
    30  C    0.228561
    31  C    0.116977
    32  H   -0.173984
    33  C    0.054624
    34  H   -0.119660
    35  H   -0.079749
    36  H   -0.265220
 Sum of Mulliken charges =  -2.00000

 Dipole moment (field-independent basis, Debye):
    X=              0.1502    Y=             11.4569    Z=             -3.2379  Tot=             11.9066
 Quadrupole moment (field-independent basis, Debye-Ang):
   XX=           -240.9687   YY=           -177.4793   ZZ=           -165.8195
   XY=             -2.4162   XZ=            -15.1938   YZ=              7.4548

  Exact polarizability:     250.575      18.190     218.460     -21.403       6.888     146.818
 Approx polarizability:     342.308      40.487     356.464     -39.006       8.821     253.758

 Summary of Natural Population Analysis:

                                       Natural Population
                Natural  -----------------------------------------------
    Atom  No    Charge         Core      Valence    Rydberg      Total
 -----------------------------------------------------------------------
      S    1    2.29270      9.99787     3.47093    0.23850    13.70730
      S    2    2.29072      9.99798     3.47092    0.24039    13.70928
      O    3   -1.00596      1.99978     6.99803    0.00816     9.00596
      O    4   -1.04063      1.99977     7.03280    0.00806     9.04063
      O    5   -1.00350      1.99977     6.99494    0.00879     9.00350
      N    6   -0.97708      1.99941     5.96057    0.01710     7.97708
      N    7   -1.03961      1.99942     6.02339    0.01679     8.03961
      C    8   -0.14333      1.99894     4.12591    0.01848     6.14333
      H    9    0.12866      0.00000     0.86376    0.00758     0.87134
      H   10    0.14663      0.00000     0.84563    0.00774     0.85337
      C   11   -0.14914      1.99903     4.13207    0.01804     6.14914
      H   12    0.14904      0.00000     0.84284    0.00812     0.85096
      H   13    0.13267      0.00000     0.85950    0.00783     0.86733
      C   14   -0.28378      1.99883     4.25188    0.03307     6.28378
      C   15   -0.14254      1.99899     4.12451    0.01904     6.14254
      H   16    0.18121      0.00000     0.81395    0.00484     0.81879
      C   17   -0.21040      1.99910     4.19633    0.01497     6.21040
      H   18    0.15914      0.00000     0.83746    0.00339     0.84086
      C   19   -0.22921      1.99913     4.21498    0.01511     6.22921
      H   20    0.15605      0.00000     0.84035    0.00361     0.84395
      C   21   -0.14524      1.99888     4.12983    0.01653     6.14524
      H   22    0.11148      0.00000     0.88509    0.00343     0.88852
      C   23   -0.23172      1.99894     4.21464    0.01814     6.23172
      H   24    0.22817      0.00000     0.76624    0.00559     0.77183
      C   25   -0.25414      1.99897     4.22257    0.03260     6.25414
      C   26   -0.19827      1.99911     4.18449    0.01468     6.19827
      C   27   -0.15038      1.99893     4.13330    0.01815     6.15038
      H   28    0.18497      0.00000     0.80976    0.00527     0.81503
      O   29   -1.03013      1.99977     7.02206    0.00830     9.03013
      C   30   -0.09527      1.99883     4.07632    0.02012     6.09527
      C   31   -0.18326      1.99906     4.16921    0.01499     6.18326
      H   32    0.13589      0.00000     0.86019    0.00392     0.86411
      C   33   -0.22406      1.99913     4.21067    0.01426     6.22406
      H   34    0.15532      0.00000     0.84123    0.00345     0.84468
      H   35    0.17352      0.00000     0.82302    0.00346     0.82648
      H   36    0.11147      0.00000     0.88104    0.00749     0.88853
 =======================================================================
   * Total *   -2.00000     59.97964   117.13039    0.88996   178.00000

 ******   27 imaginary frequencies (negative Signs) ******

                      1                      2                      3
                      A                      A                      A
 Frequencies --  -2450.8630             -2315.2689             -2145.6484
 Red. masses --      1.0698                 1.0688                 1.0635
 Frc consts  --      3.7860                 3.3756                 2.8846
 IR Inten    --     15.2034                19.7581                15.3388

                      4                      5                      6
                      A                      A                      A
 Frequencies --  -1989.5393             -1808.9666             -1524.0984
 Red. masses --      1.0635                 1.0590                 1.0517
 Frc consts  --      2.4802                 2.0419                 1.4393
 IR Inten    --      2.7624                21.2803                10.2424

                      7                      8                      9
                      A                      A                      A
 Frequencies --  -1430.9525             -1366.5839             -1280.3392
 Red. masses --      1.0701                 1.0636                 1.0355
 Frc consts  --      1.2909                 1.1703                 1.0002
 IR Inten    --      9.7255                30.7957                 5.7061

                     10                     11                     12
                      A                      A                      A
 Frequencies --  -1276.1707             -1202.2437             -1132.0733
 Red. masses --      1.0314                 1.0520                 1.0331
 Frc consts  --      0.9897                 0.8959                 0.7801
 IR Inten    --      2.2553                17.6698                 0.4193

                     13                     14                     15
                      A                      A                      A
 Frequencies --  -1129.3174             -1093.2403              -863.7697
 Red. masses --      1.0603                 1.0332                 1.1061
 Frc consts  --      0.7967                 0.7276                 0.4862
 IR Inten    --     17.6097                 1.5814                 4.0266

                     16                     17                     18
                      A                      A                      A
 Frequencies --   -862.4243              -844.9838              -760.7436
 Red. masses --      1.1344                 1.0272                 1.1326
 Frc consts  --      0.4971                 0.4321                 0.3862
 IR Inten    --     10.9507                 9.1590                16.7183

                     19                     20                     21
                      A                      A                      A
 Frequencies --   -698.4051              -636.8442              -619.9262
 Red. masses --      1.2193                 1.1442                 1.1734
 Frc consts  --      0.3504                 0.2734                 0.2657
 IR Inten    --      4.4988                 4.7549                 2.9770

                     22                     23                     24
                      A                      A                      A
 Frequencies --   -570.5674              -318.4430              -274.6062
 Red. masses --      1.2599                 1.2994                 2.5274
 Frc consts  --      0.2417                 0.0776                 0.1123
 IR Inten    --     36.2907                 5.7707                10.0422

                     25                     26                     27
                      A                      A                      A
 Frequencies --   -150.4500               -83.4418               -67.0125
 Red. masses --      1.9710                12.2572                10.7302
 Frc consts  --      0.0263                 0.0503                 0.0284
 IR Inten    --      1.8740                 0.5008                 0.6297

                     28                     29                     30
                      A                      A                      A
 Frequencies --     47.2218                94.3470               125.0071
 Red. masses --      7.8784                 8.8007                10.6715
 Frc consts  --      0.0104                 0.0462                 0.0983
 IR Inten    --      0.5099                 1.6696                 1.8144

                     31                     32                     33
                      A                      A                      A
 Frequencies --    172.1307               202.2737               244.0940
 Red. masses --      9.1612                 8.1616                 6.1225
 Frc consts  --      0.1599                 0.1967                 0.2149
 IR Inten    --      0.7096                 0.5757                 1.0947

                     34                     35                     36
                      A                      A                      A
 Frequencies --    255.2715               274.3057               282.3752
 Red. masses --     10.7997                 5.6446                 8.4752
 Frc consts  --      0.4146                 0.2502                 0.3982
 IR Inten    --      5.8005                 2.0576                 0.9507

                     37                     38                     39
                      A                      A                      A
 Frequencies --    301.2614               317.6151               331.2658
 Red. masses --      8.8425                 7.2140                 7.5458
 Frc consts  --      0.4728                 0.4288                 0.4879
 IR Inten    --      8.7602                 7.3541                 5.3567

                     40                     41                     42
                      A                      A                      A
 Frequencies --    350.6008               427.6716               458.5728
 Red. masses --      8.8379                 6.9931                 6.7262
 Frc consts  --      0.6401                 0.7536                 0.8334
 IR Inten    --     28.3078                52.4336                22.1802

                     43                     44                     45
                      A                      A                      A
 Frequencies --    496.1089               529.0367               535.5150
 Red. masses --      8.1387                 9.3337                 5.9564
 Frc consts  --      1.1802                 1.5391                 1.0064
 IR Inten    --     26.4353                 0.6264                 9.3050

                     46                     47                     48
                      A                      A                      A
 Frequencies --    548.8616               556.1580               581.7550
 Red. masses --      6.2643                 5.5261                 8.5981
 Frc consts  --      1.1119                 1.0071                 1.7145
 IR Inten    --      5.5119                13.8256                55.7141

                     49                     50                     51
                      A                      A                      A
 Frequencies --    593.8193               604.1084               624.4209
 Red. masses --      5.5063                 9.0442                 5.3956
 Frc consts  --      1.1440                 1.9447                 1.2395
 IR Inten    --     61.5968                19.7298                24.0565

                     52                     53                     54
                      A                      A                      A
 Frequencies --    626.8516               636.9699               670.5370
 Red. masses --      5.3467                 5.5976                 6.1030
 Frc consts  --      1.2378                 1.3381                 1.6167
 IR Inten    --    111.6980                20.3970                31.2880

                     55                     56                     57
                      A                      A                      A
 Frequencies --    702.8714               722.0207               731.9592
 Red. masses --      2.9582                 3.8084                 1.4162
 Frc consts  --      0.8611                 1.1698                 0.4470
 IR Inten    --     96.4415                 3.0763                 1.8169

                     58                     59                     60
                      A                      A                      A
 Frequencies --    746.4024               771.6876               787.6173
 Red. masses --      4.0078                 8.9424                 4.4794
 Frc consts  --      1.3155                 3.1375                 1.6372
 IR Inten    --      0.2739                 3.4608                 7.9670

                     61                     62                     63
                      A                      A                      A
 Frequencies --    789.8706               843.1405               857.4636
 Red. masses --      8.1865                 3.2980                 3.5610
 Frc consts  --      3.0092                 1.3813                 1.5426
 IR Inten    --      0.2670                 6.1646                13.4735

                     64                     65                     66
                      A                      A                      A
 Frequencies --    902.6177               942.0724               957.6165
 Red. masses --      3.4029                 4.3787                 1.5111
 Frc consts  --      1.6335                 2.2896                 0.8165
 IR Inten    --      9.6740                84.7702                 7.7523

                     67                     68                     69
                      A                      A                      A
 Frequencies --    979.4894              1045.9312              1055.5412
 Red. masses --      1.2869                 6.1563                 4.3960
 Frc consts  --      0.7274                 3.9680                 2.8857
 IR Inten    --    104.2135                 4.9165                 4.8220

                     70                     71                     72
                      A                      A                      A
 Frequencies --   1114.9720              1129.4164              1132.9176
 Red. masses --      6.2985                 7.7281                 7.5800
 Frc consts  --      4.6133                 5.8081                 5.7321
 IR Inten    --     25.3935                20.8977                26.5987

                     73                     74                     75
                      A                      A                      A
 Frequencies --   1171.5158              1194.8060              1237.4499
 Red. masses --      6.3401                 8.0802                12.8006
 Frc consts  --      5.1267                 6.7962                11.5488
 IR Inten    --    101.6375                64.9285               424.5172

                     76                     77                     78
                      A                      A                      A
 Frequencies --   1257.0102              1357.7973              1370.2023
 Red. masses --     13.8766                 9.0543                 7.7775
 Frc consts  --     12.9184                 9.8350                 8.6032
 IR Inten    --    336.3947                 1.9726                15.1878

                     79                     80                     81
                      A                      A                      A
 Frequencies --   1376.0449              1381.0597              1401.3200
 Red. masses --      7.4858                18.1908                20.0261
 Frc consts  --      8.3513                20.4421                23.1698
 IR Inten    --      6.8790               195.0344               245.7962

                     82                     83                     84
                      A                      A                      A
 Frequencies --   1404.0398              1421.5657              1474.9522
 Red. masses --      8.2622                 6.6540                 8.8525
 Frc consts  --      9.5963                 7.9225                11.3467
 IR Inten    --      7.2798                 5.9447                 6.6309

                     85                     86                     87
                      A                      A                      A
 Frequencies --   1623.0305              1639.4743              1644.1340
 Red. masses --      9.4161                 9.4131                 9.8760
 Frc consts  --     14.6142                14.9070                15.7291
 IR Inten    --      8.0130                75.7793                 2.1316

                     88                     89                     90
                      A                      A                      A
 Frequencies --   1698.0965              3941.1587              4297.6119
 Red. masses --     10.2459                 1.0904                 1.0739
 Frc consts  --     17.4071                 9.9786                11.6858
 IR Inten    --     14.3850                 3.4067                54.8704

                     91                     92                     93
                      A                      A                      A
 Frequencies --   4443.2310              4588.2445              4665.7279
 Red. masses --      1.0895                 1.0703                 1.0921
 Frc consts  --     12.6730                13.2754                14.0078
 IR Inten    --      9.7712                47.9575                29.3700

                     94                     95                     96
                      A                      A                      A
 Frequencies --   4808.9173              4848.6357              4881.1097
 Red. masses --      1.0890                 1.0882                 1.0963
 Frc consts  --     14.8384                15.0734                15.3889
 IR Inten    --     11.3125                10.8497                22.4124

                     97                     98                     99
                      A                      A                      A
 Frequencies --   4906.4171              5001.7822              5317.3146
 Red. masses --      1.0896                 1.0894                 1.0890
 Frc consts  --     15.4542                16.0581                18.1411
 IR Inten    --      7.6734                 1.3118                 7.7682

                    100                    101                    102
                      A                      A                      A
 Frequencies --   5665.4067              6434.0432              6636.7336
 Red. masses --      1.0884                 1.0881                 1.0881
 Frc consts  --     20.5830                26.5381                28.2378
 IR Inten    --      6.8560                 3.0267                 2.1767

 - Thermochemistry -
 -------------------
 Temperature   298.150 Kelvin.  Pressure   1.00000 Atm.
 Atom     1 has atomic number 16 and mass  31.97207

 Molecular mass:   338.03950 amu.
 Principal axes and moments of inertia in atomic units:
                           1         2         3
     Eigenvalues --  4130.20079********************
           X            0.99998  -0.00099  -0.00668
           Y            0.00110   0.99986   0.01687
           Z            0.00666  -0.01687   0.99984
 This molecule is an asymmetric top.
 Rotational symmetry number  1.
 Warning -- assumption of classical behavior for rotation
           may cause significant error
 Rotational temperatures (Kelvin)      0.02097     0.00560     0.00493
 Rotational constants (GHZ):           0.43696     0.11664     0.10279
   27 imaginary frequencies ignored.
 Zero-point vibrational energy     718899.4 (Joules/Mol)
                                  171.82109 (Kcal/Mol)
 Warning -- explicit consideration of  23 degrees of freedom as
           vibrations may cause significant error
 Vibrational temperatures:     67.94   135.74   179.86   247.66   291.03
          (Kelvin)            351.20   367.28   394.66   406.27   433.45
                              456.98   476.62   504.44   615.32   659.78
                              713.79   761.17   770.49   789.69   800.19
                              837.02   854.37   869.18   898.40   901.90
                              916.46   964.75  1011.28  1038.83  1053.13
                             1073.91  1110.29  1133.21  1136.45  1213.09
                             1233.70  1298.67  1355.43  1377.80  1409.27
                             1504.86  1518.69  1604.20  1624.98  1630.02
                             1685.55  1719.06  1780.41  1808.56  1953.57
                             1971.42  1979.82  1987.04  2016.19  2020.10
                             2045.32  2122.13  2335.18  2358.84  2365.54
                             2443.18  5670.45  6183.30  6392.82  6601.46
                             6712.94  6918.96  6976.11  7022.83  7059.24
                             7196.45  7650.43  8151.26  9257.15  9548.78

 Zero-point correction=                           0.273814 (Hartree/Particle)
 Thermal correction to Energy=                    0.287347
 Thermal correction to Enthalpy=                  0.288291
 Thermal correction to Gibbs Free Energy=         0.232615
 Sum of electronic and zero-point Energies=          -1745.560359
 Sum of electronic and thermal Energies=             -1745.546826
 Sum of electronic and thermal Enthalpies=           -1745.545882
 Sum of electronic and thermal Free Energies=        -1745.601559

                     E (Thermal)             CV                S
                      KCal/Mol        Cal/Mol-Kelvin    Cal/Mol-Kelvin
 Total                  180.313             55.874            117.182
 Electronic               0.000              0.000              0.000
 Translational            0.889              2.981             43.349
 Rotational               0.889              2.981             35.371
 Vibrational            178.536             49.912             38.462
 Vibration     1          0.595              1.979              4.930
 Vibration     2          0.603              1.953              3.568
 Vibration     3          0.610              1.928              3.021
 Vibration     4          0.626              1.877              2.412
 Vibration     5          0.639              1.837              2.112
 Vibration     6          0.659              1.773              1.773
 Vibration     7          0.666              1.754              1.694
 Vibration     8          0.677              1.721              1.569
 Vibration     9          0.681              1.706              1.519
 Vibration    10          0.693              1.671              1.410
 Vibration    11          0.704              1.640              1.322
 Vibration    12          0.714              1.613              1.254
 Vibration    13          0.728              1.574              1.163
 Vibration    14          0.789              1.410              0.866
 Vibration    15          0.817              1.342              0.770
 Vibration    16          0.852              1.259              0.668
 Vibration    17          0.884              1.186              0.589
 Vibration    18          0.891              1.171              0.575
 Vibration    19          0.904              1.142              0.547
 Vibration    20          0.912              1.126              0.532
 Vibration    21          0.939              1.071              0.482
 Vibration    22          0.951              1.045              0.460
 Vibration    23          0.963              1.023              0.443

 Normal termination of Gaussian 16 at Mon Mar  6 11:21:05 2023.
