 Gaussian 16, Revision C.01,
 Gaussian 16:  ES64L-G16RevC.01  3-Jul-2019

 ----------------------------------------------------------------------
 #p pop=(regular,nbo,savenbos) freq=noraman def2svp empiricaldispersion
 =gd3bj output=wfx pbe1pbe
 ----------------------------------------------------------------------

 ----------------------------------------
 UHOTOA_Complex_0_Ligand_0_NN_Cu_oriented
 ----------------------------------------
 Symbolic Z-matrix:
 Charge = -1 Multiplicity = 1

                         Standard orientation:
 ---------------------------------------------------------------------
 Center     Atomic      Atomic             Coordinates (Angstroms)
 Number     Number       Type             X           Y           Z
 ---------------------------------------------------------------------
      1          6           0        2.225643    0.091536    0.884333
      2          1           0        2.404425    0.703076    1.616562
      3          1           0        1.686505   -0.640083    1.223268
      4          7           0        1.510893    0.785119   -0.180050
      5         16           0        0.303957    1.745049    0.206644
      6          8           0        0.404337    2.184674    1.570654
      7          8           0        0.217086    2.764963   -0.812298
      8          6           0       -1.193869    0.815353    0.070573
      9          6           0       -2.352707    1.451793   -0.329039
     10          1           0       -2.327778    2.361121   -0.522534
     11          6           0       -3.537301    0.774002   -0.448228
     12          1           0       -4.296018    1.233494   -0.730093
     13          6           0       -3.636479   -0.589545   -0.156428
     14          6           0       -2.448800   -1.223134    0.221703
     15          1           0       -2.457647   -2.137157    0.396325
     16          6           0       -1.273165   -0.531267    0.343861
     17          1           0       -0.507767   -0.981808    0.617468
     18          7           0       -4.831183   -1.265959   -0.268788
     19          6           0       -6.050459   -0.534534   -0.459167
     20          1           0       -6.784501   -1.149272   -0.528884
     21          1           0       -6.193035    0.050694    0.288235
     22          1           0       -5.990396   -0.015327   -1.264939
     23          6           0       -4.954385   -2.613182    0.234976
     24          1           0       -5.837856   -2.942391    0.054122
     25          1           0       -4.308097   -3.176419   -0.195169
     26          1           0       -4.799661   -2.615123    1.183092
     27          7           0        3.828807   -0.063535   -0.912702
     28          6           0        4.935168   -0.572050   -1.497594
     29          1           0        5.157214   -0.296044   -2.357750
     30          6           0        5.740923   -1.481314   -0.863220
     31          1           0        6.483067   -1.837937   -1.293932
     32          6           0        5.429293   -1.858630    0.433347
     33          1           0        5.968649   -2.465207    0.887699
     34          6           0        4.315284   -1.329522    1.043172
     35          1           0        4.099253   -1.563501    1.917066
     36          6           0        3.519075   -0.438733    0.332894
 ---------------------------------------------------------------------

 SCF Done:  E(RPBE1PBE) =  -1253.78845388     A.U. after   14 cycles

 The electronic state is 1-A.
 Alpha  occ. eigenvalues --  -89.01158 -18.98373 -18.98054 -14.30787 -14.24911
 Alpha  occ. eigenvalues --  -14.13549 -10.15657 -10.14394 -10.14251 -10.13965
 Alpha  occ. eigenvalues --  -10.13246 -10.12276 -10.10944 -10.10824 -10.09494
 Alpha  occ. eigenvalues --  -10.09340 -10.09296 -10.09014 -10.08951 -10.07285
 Alpha  occ. eigenvalues --   -7.97862  -5.92105  -5.91991  -5.91893  -0.93585
 Alpha  occ. eigenvalues --   -0.88266  -0.83562  -0.81225  -0.75861  -0.71795
 Alpha  occ. eigenvalues --   -0.70702  -0.69899  -0.67507  -0.66607  -0.65646
 Alpha  occ. eigenvalues --   -0.60177  -0.57458  -0.55182  -0.52786  -0.51591
 Alpha  occ. eigenvalues --   -0.50023  -0.47113  -0.44618  -0.43631  -0.42248
 Alpha  occ. eigenvalues --   -0.41526  -0.39937  -0.38459  -0.38139  -0.37292
 Alpha  occ. eigenvalues --   -0.35352  -0.34811  -0.34016  -0.33792  -0.33374
 Alpha  occ. eigenvalues --   -0.32319  -0.32141  -0.31407  -0.29034  -0.28438
 Alpha  occ. eigenvalues --   -0.27759  -0.27706  -0.26776  -0.25137  -0.23723
 Alpha  occ. eigenvalues --   -0.19988  -0.18064  -0.16508  -0.15273  -0.14764
 Alpha  occ. eigenvalues --   -0.14031  -0.12777  -0.12383  -0.11456  -0.08775
 Alpha  occ. eigenvalues --   -0.04985  -0.02948
 Alpha virt. eigenvalues --    0.09643   0.11263   0.12142   0.13268   0.15722
 Alpha virt. eigenvalues --    0.19545   0.19568   0.19831   0.22040   0.22922
 Alpha virt. eigenvalues --    0.23777   0.24488   0.24787   0.25049   0.25880

 Mulliken charges:
               1
     1  C    0.418708
     2  H   -0.048335
     3  H   -0.069453
     4  N   -0.617092
     5  S    0.864378
     6  O   -0.553009
     7  O   -0.541293
     8  C   -0.029473
     9  C    0.124724
    10  H   -0.128790
    11  C   -0.017685
    12  H   -0.156026
    13  C    0.249661
    14  C   -0.014009
    15  H   -0.161304
    16  C    0.139753
    17  H   -0.158156
    18  N   -0.484023
    19  C    0.336403
    20  H   -0.045443
    21  H   -0.037165
    22  H   -0.015995
    23  C    0.332464
    24  H   -0.043817
    25  H   -0.014567
    26  H   -0.035902
    27  N   -0.126731
    28  C    0.184721
    29  H   -0.095888
    30  C    0.010552
    31  H   -0.117474
    32  C    0.138329
    33  H   -0.115697
    34  C    0.080743
    35  H   -0.126692
    36  C   -0.126419
 Sum of Mulliken charges =  -1.00000

 Dipole moment (field-independent basis, Debye):
    X=             -5.9895    Y=             -9.3280    Z=              1.1097  Tot=             11.1408
 Quadrupole moment (field-independent basis, Debye-Ang):
   XX=           -125.3352   YY=           -142.7361   ZZ=           -133.3371
   XY=             -2.9020   XZ=              3.5049   YZ=             -3.2403

  Exact polarizability:     275.521      -9.147     164.357      -0.858     -13.045     130.487
 Approx polarizability:     331.587     -18.709     262.009      -0.451     -29.555     222.481

 Summary of Natural Population Analysis:

                                       Natural Population
                Natural  -----------------------------------------------
    Atom  No    Charge         Core      Valence    Rydberg      Total
 -----------------------------------------------------------------------
      C    1   -0.19797      1.99899     4.17818    0.02080     6.19797
      H    2    0.18758      0.00000     0.80465    0.00777     0.81242
      H    3    0.15925      0.00000     0.83484    0.00591     0.84075
      N    4   -1.05413      1.99943     6.03848    0.01623     8.05413
      S    5    2.30768      9.99798     3.45394    0.24039    13.69232
      O    6   -1.01976      1.99976     7.01171    0.00828     9.01976
      O    7   -1.00201      1.99977     6.99375    0.00849     9.00201
      C    8   -0.30112      1.99884     4.26991    0.03237     6.30112
      C    9   -0.13553      1.99900     4.11760    0.01892     6.13553
      H   10    0.18279      0.00000     0.81190    0.00531     0.81721
      C   11   -0.25924      1.99901     4.24541    0.01482     6.25924
      H   12    0.16496      0.00000     0.83179    0.00325     0.83504
      C   13    0.18077      1.99901     3.80037    0.01985     5.81923
      C   14   -0.25927      1.99901     4.24536    0.01490     6.25927
      H   15    0.16553      0.00000     0.83132    0.00316     0.83447
      C   16   -0.13412      1.99898     4.11794    0.01719     6.13412
      H   17    0.17676      0.00000     0.81921    0.00404     0.82324
      N   18   -0.48380      1.99916     5.47478    0.00986     7.48380
      C   19   -0.30720      1.99917     4.29731    0.01071     6.30720
      H   20    0.17245      0.00000     0.82538    0.00217     0.82755
      H   21    0.16316      0.00000     0.83191    0.00493     0.83684
      H   22    0.17636      0.00000     0.82031    0.00333     0.82364
      C   23   -0.30559      1.99916     4.29594    0.01050     6.30559
      H   24    0.17226      0.00000     0.82558    0.00215     0.82774
      H   25    0.17614      0.00000     0.82065    0.00320     0.82386
      H   26    0.16313      0.00000     0.83202    0.00485     0.83687
      N   27   -0.45279      1.99928     5.43620    0.01731     7.45279
      C   28    0.10079      1.99910     3.87917    0.02094     5.89921
      H   29    0.14020      0.00000     0.85643    0.00337     0.85980
      C   30   -0.24978      1.99912     4.23716    0.01350     6.24978
      H   31    0.15944      0.00000     0.83680    0.00376     0.84056
      C   32   -0.15793      1.99912     4.14442    0.01439     6.15793
      H   33    0.15836      0.00000     0.83855    0.00308     0.84164
      C   34   -0.22529      1.99899     4.21167    0.01463     6.22529
      H   35    0.16771      0.00000     0.82876    0.00353     0.83229
      C   36    0.27019      1.99907     3.70367    0.02708     5.72981
 =======================================================================
   * Total *   -1.00000     47.98195   105.40306    0.61499   154.00000

 ******   26 imaginary frequencies (negative Signs) ******

                      1                      2                      3
                      A                      A                      A
 Frequencies --  -1465.8657             -1442.4091             -1404.8995
 Red. masses --      1.0792                 1.0661                 1.0120
 Frc consts  --      1.3663                 1.3068                 1.1768
 IR Inten    --     50.8750                51.5189                 1.4623

                      4                      5                      6
                      A                      A                      A
 Frequencies --  -1400.3526             -1393.1747             -1353.0033
 Red. masses --      1.0168                 1.0462                 1.0479
 Frc consts  --      1.1748                 1.1964                 1.1303
 IR Inten    --      0.4730                 1.3043                 0.0356

                      7                      8                      9
                      A                      A                      A
 Frequencies --  -1308.3942             -1253.5071             -1237.0657
 Red. masses --      1.0248                 1.0286                 1.0409
 Frc consts  --      1.0337                 0.9523                 0.9385
 IR Inten    --      0.2646                 0.8991                 0.9204

                     10                     11                     12
                      A                      A                      A
 Frequencies --  -1211.0526             -1124.0353              -972.6566
 Red. masses --      1.0388                 1.0340                 1.0855
 Frc consts  --      0.8977                 0.7697                 0.6051
 IR Inten    --      0.3169                 4.8134                 0.0722

                     13                     14                     15
                      A                      A                      A
 Frequencies --   -935.1027              -903.5065              -900.4922
 Red. masses --      1.1544                 1.1048                 1.1264
 Frc consts  --      0.5947                 0.5314                 0.5382
 IR Inten    --      7.0693                 0.8657                 6.9626

                     16                     17                     18
                      A                      A                      A
 Frequencies --   -890.5231              -871.0304              -852.5742
 Red. masses --      1.0574                 1.0505                 1.0752
 Frc consts  --      0.4940                 0.4696                 0.4605
 IR Inten    --     11.9973                 5.6960                24.7767

                     19                     20                     21
                      A                      A                      A
 Frequencies --   -826.0186              -797.0963              -783.1270
 Red. masses --      1.0370                 1.1064                 1.1002
 Frc consts  --      0.4169                 0.4142                 0.3976
 IR Inten    --      0.6031                 0.1274                 7.6832

                     22                     23                     24
                      A                      A                      A
 Frequencies --   -718.7719              -679.8499              -572.3074
 Red. masses --      1.0929                 1.0352                 1.3850
 Frc consts  --      0.3327                 0.2819                 0.2673
 IR Inten    --      7.0854                 7.5814                 3.6220

                     25                     26                     27
                      A                      A                      A
 Frequencies --   -424.1542               -74.4793                91.5719
 Red. masses --      1.3891                 9.3373                 7.7242
 Frc consts  --      0.1472                 0.0305                 0.0382
 IR Inten    --     32.0803                 1.1705                 2.3028

                     28                     29                     30
                      A                      A                      A
 Frequencies --    134.7724               168.9831               182.5351
 Red. masses --      8.8189                 8.0168                 8.6684
 Frc consts  --      0.0944                 0.1349                 0.1702
 IR Inten    --      2.6434                 0.6225                 2.5045

                     31                     32                     33
                      A                      A                      A
 Frequencies --    189.6272               222.2375               251.8075
 Red. masses --      8.9923                 7.6082                 7.2416
 Frc consts  --      0.1905                 0.2214                 0.2705
 IR Inten    --      0.5355                 1.8526                 7.6872

                     34                     35                     36
                      A                      A                      A
 Frequencies --    270.7384               297.2168               369.7117
 Red. masses --      8.0015                 8.9641                 8.7012
 Frc consts  --      0.3456                 0.4666                 0.7007
 IR Inten    --     16.0946                 1.8593                 0.1148

                     37                     38                     39
                      A                      A                      A
 Frequencies --    380.8601               443.7664               481.8933
 Red. masses --      7.6375                 5.1813                 9.0963
 Frc consts  --      0.6527                 0.6012                 1.2446
 IR Inten    --      4.5874                 0.1723                 9.3345

                     40                     41                     42
                      A                      A                      A
 Frequencies --    499.6244               506.3898               507.7589
 Red. masses --      8.8562                 6.6122                 9.9098
 Frc consts  --      1.3025                 0.9990                 1.5053
 IR Inten    --     10.8579                66.7369                 1.5041

                     43                     44                     45
                      A                      A                      A
 Frequencies --    517.9504               558.0172               587.8884
 Red. masses --     10.3016                 8.1423                 2.9812
 Frc consts  --      1.6283                 1.4938                 0.6071
 IR Inten    --      9.4051                36.8119                18.2622

                     46                     47                     48
                      A                      A                      A
 Frequencies --    595.1919               601.0278               633.0521
 Red. masses --      2.0464                 4.1530                 7.0994
 Frc consts  --      0.4271                 0.8839                 1.6763
 IR Inten    --     18.7093                 4.0119                92.9262

                     49                     50                     51
                      A                      A                      A
 Frequencies --    645.4318               658.9686               663.1181
 Red. masses --      3.0356                 1.6746                 5.0805
 Frc consts  --      0.7451                 0.4284                 1.3163
 IR Inten    --      3.2494                 4.9813               119.0932

                     52                     53                     54
                      A                      A                      A
 Frequencies --    681.8579               714.7895               728.5186
 Red. masses --      6.3010                 7.6329                 7.2134
 Frc consts  --      1.7260                 2.2977                 2.2556
 IR Inten    --     35.4885                 0.3419                24.5168

                     55                     56                     57
                      A                      A                      A
 Frequencies --    733.2376               751.3931               778.7668
 Red. masses --      4.8735                 4.2968                 2.8570
 Frc consts  --      1.5438                 1.4293                 1.0209
 IR Inten    --      2.5990                 0.7877                 8.6354

                     58                     59                     60
                      A                      A                      A
 Frequencies --    800.8293               859.0412               873.9072
 Red. masses --      9.0850                 4.1433                 5.7429
 Frc consts  --      3.4328                 1.8015                 2.5841
 IR Inten    --      2.8313                59.2675                 1.1831

                     61                     62                     63
                      A                      A                      A
 Frequencies --    885.4401               907.2535               942.9068
 Red. masses --      3.8455                 4.3802                 1.5307
 Frc consts  --      1.7763                 2.1242                 0.8018
 IR Inten    --      8.9538                30.0158               119.5564

                     64                     65                     66
                      A                      A                      A
 Frequencies --    998.3703              1020.7634              1034.1361
 Red. masses --      1.0124                 1.2713                 7.8380
 Frc consts  --      0.5946                 0.7804                 4.9387
 IR Inten    --      1.6231                10.4598                 2.4169

                     67                     68                     69
                      A                      A                      A
 Frequencies --   1040.4965              1053.7285              1088.1982
 Red. masses --      1.0370                 1.2386                 3.3750
 Frc consts  --      0.6614                 0.8103                 2.3547
 IR Inten    --      3.2792                50.1194                10.1069

                     70                     71                     72
                      A                      A                      A
 Frequencies --   1156.7530              1197.6248              1233.2287
 Red. masses --      3.9743                 6.5472                 7.6181
 Frc consts  --      3.1332                 5.5328                 6.8263
 IR Inten    --      3.5298               306.5528                10.9216

                     73                     74                     75
                      A                      A                      A
 Frequencies --   1267.4545              1342.1421              1357.6758
 Red. masses --     14.6645                 8.8683                 5.9155
 Frc consts  --     13.8798                 9.4121                 6.4244
 IR Inten    --    369.7391                 2.1218                32.0530

                     76                     77                     78
                      A                      A                      A
 Frequencies --   1363.5850              1393.6059              1439.0466
 Red. masses --      7.8897                 8.4904                 9.7620
 Frc consts  --      8.6433                 9.7153                11.9107
 IR Inten    --     58.0776                 4.0298                28.0106

                     79                     80                     81
                      A                      A                      A
 Frequencies --   1440.9526              1467.1119              1472.6115
 Red. masses --     19.2525                 8.5977                 8.3367
 Frc consts  --     23.5525                10.9033                10.6518
 IR Inten    --    229.9381                 9.3630                19.0550

                     82                     83                     84
                      A                      A                      A
 Frequencies --   1552.0272              1643.1858              1659.1557
 Red. masses --      9.4017                10.5640                10.3779
 Frc consts  --     13.3430                16.8055                16.8320
 IR Inten    --    323.0625                88.9544                10.1365

                     85                     86                     87
                      A                      A                      A
 Frequencies --   1684.4396              1708.8126              4394.0881
 Red. masses --     10.2723                10.9527                 1.0578
 Frc consts  --     17.1723                18.8434                12.0337
 IR Inten    --     28.0502               174.9967                69.0612

                     88                     89                     90
                      A                      A                      A
 Frequencies --   4455.0992              4460.2499              4513.3411
 Red. masses --      1.0312                 1.0318                 1.1088
 Frc consts  --     12.0593                12.0940                13.3078
 IR Inten    --     50.1875                79.6216                14.3112

                     91                     92                     93
                      A                      A                      A
 Frequencies --   4653.0152              4654.0089              4669.0025
 Red. masses --      1.1075                 1.1069                 1.1073
 Frc consts  --     14.1279                14.1263                14.2224
 IR Inten    --     19.3392                 7.5693                 5.0831

                     94                     95                     96
                      A                      A                      A
 Frequencies --   4678.2449              5014.6028              5016.2164
 Red. masses --      1.1074                 1.0875                 1.0877
 Frc consts  --     14.2803                16.1125                16.1258
 IR Inten    --      2.9562                 7.9592                 3.5845

                     97                     98                     99
                      A                      A                      A
 Frequencies --   5020.8009              5028.5074              5033.5245
 Red. masses --      1.0869                 1.0880                 1.0906
 Frc consts  --     16.1425                16.2097                16.2799
 IR Inten    --      0.8564                 2.6920                 5.7765

                    100                    101                    102
                      A                      A                      A
 Frequencies --   5037.8613              5042.2419              5044.0136
 Red. masses --      1.0900                 1.0897                 1.0920
 Frc consts  --     16.3001                16.3236                16.3696
 IR Inten    --      2.2450                 1.0821                10.1033

 - Thermochemistry -
 -------------------
 Temperature   298.150 Kelvin.  Pressure   1.00000 Atm.
 Atom     1 has atomic number  6 and mass  12.00000

 Molecular mass:   290.09632 amu.
 Principal axes and moments of inertia in atomic units:
                           1         2         3
     Eigenvalues --  2793.01906********************
           X            0.99999   0.00431   0.00160
           Y           -0.00429   0.99987  -0.01556
           Z           -0.00167   0.01556   0.99988
 This molecule is an asymmetric top.
 Rotational symmetry number  1.
 Warning -- assumption of classical behavior for rotation
           may cause significant error
 Rotational temperatures (Kelvin)      0.03101     0.00643     0.00571
 Rotational constants (GHZ):           0.64616     0.13388     0.11907
   26 imaginary frequencies ignored.
 Zero-point vibrational energy     762308.4 (Joules/Mol)
                                  182.19607 (Kcal/Mol)
 Warning -- explicit consideration of  21 degrees of freedom as
           vibrations may cause significant error
 Vibrational temperatures:    131.75   193.91   243.13   262.63   272.83
          (Kelvin)            319.75   362.29   389.53   427.63   531.93
                              547.97   638.48   693.34   718.85   728.58
                              730.55   745.22   802.86   845.84   856.35
                              864.74   910.82   928.63   948.11   954.08
                              981.04  1028.42  1048.18  1054.97  1081.09
                             1120.47  1152.21  1235.97  1257.36  1273.95
                             1305.34  1356.63  1436.43  1468.65  1487.89
                             1497.04  1516.08  1565.67  1664.31  1723.11
                             1774.34  1823.58  1931.04  1953.39  1961.89
                             2005.09  2070.47  2073.21  2110.85  2118.76
                             2233.02  2364.18  2387.16  2423.53  2458.60
                             6322.11  6409.89  6417.30  6493.69  6694.65
                             6696.08  6717.65  6730.95  7214.89  7217.22
                             7223.81  7234.90  7242.12  7248.36  7254.66
                             7257.21

 Zero-point correction=                           0.290348 (Hartree/Particle)
 Thermal correction to Energy=                    0.302821
 Thermal correction to Enthalpy=                  0.303765
 Thermal correction to Gibbs Free Energy=         0.251160
 Sum of electronic and zero-point Energies=          -1253.498106
 Sum of electronic and thermal Energies=             -1253.485633
 Sum of electronic and thermal Enthalpies=           -1253.484689
 Sum of electronic and thermal Free Energies=        -1253.537294

                     E (Thermal)             CV                S
                      KCal/Mol        Cal/Mol-Kelvin    Cal/Mol-Kelvin
 Total                  190.023             52.703            110.717
 Electronic               0.000              0.000              0.000
 Translational            0.889              2.981             42.893
 Rotational               0.889              2.981             34.700
 Vibrational            188.246             46.741             33.125
 Vibration     1          0.602              1.955              3.626
 Vibration     2          0.613              1.919              2.877
 Vibration     3          0.625              1.881              2.447
 Vibration     4          0.630              1.864              2.302
 Vibration     5          0.633              1.854              2.231
 Vibration     6          0.648              1.807              1.941
 Vibration     7          0.664              1.760              1.718
 Vibration     8          0.674              1.727              1.591
 Vibration     9          0.691              1.679              1.433
 Vibration    10          0.742              1.534              1.081
 Vibration    11          0.751              1.511              1.036
 Vibration    12          0.803              1.375              0.815
 Vibration    13          0.838              1.290              0.705
 Vibration    14          0.855              1.251              0.659
 Vibration    15          0.862              1.236              0.642
 Vibration    16          0.863              1.233              0.639
 Vibration    17          0.873              1.210              0.615
 Vibration    18          0.914              1.122              0.528
 Vibration    19          0.945              1.058              0.471
 Vibration    20          0.953              1.042              0.458
 Vibration    21          0.959              1.030              0.448

 Normal termination of Gaussian 16 at Mon Mar  6 11:13:22 2023.
