 Gaussian 16, Revision C.01,
 Gaussian 16:  ES64L-G16RevC.01  3-Jul-2019

 ----------------------------------------------------------------------
 #p pop=(regular,nbo,savenbos) freq=noraman def2svp empiricaldispersion
 =gd3bj output=wfx pbe1pbe
 ----------------------------------------------------------------------

 ----------------------------------------
 VELTOW_Complex_1_Ligand_1_OO_Cu_oriented
 ----------------------------------------
 Symbolic Z-matrix:
 Charge = -1 Multiplicity = 1

                         Standard orientation:
 ---------------------------------------------------------------------
 Center     Atomic      Atomic             Coordinates (Angstroms)
 Number     Number       Type             X           Y           Z
 ---------------------------------------------------------------------
      1          8           0        1.669535    2.433115   -0.501971
      2          8           0       -1.138798    2.424375   -0.270894
      3          6           0        2.588064    0.180921   -0.191770
      4          6           0        1.465007    1.197745   -0.289745
      5          6           0        0.241180    0.508655   -0.168834
      6          6           0        0.624391   -0.961674   -0.022200
      7          1           0       -0.079253   -1.550402    0.376744
      8          6           0        1.151786   -1.403137   -1.416738
      9          1           0        1.338337   -2.375603   -1.438844
     10          1           0        0.506070   -1.179867   -2.131967
     11          6           0        2.460998   -0.576617   -1.561257
     12          1           0        3.239555   -1.169200   -1.712005
     13          6           0        1.941338   -0.842486    0.801712
     14          6           0        1.731499   -0.287099    2.203555
     15          1           0        1.235526   -0.939045    2.742704
     16          1           0        1.221453    0.547894    2.151572
     17          1           0        2.601055   -0.112652    2.619901
     18          6           0        2.734908   -2.146174    0.912937
     19          1           0        2.213030   -2.803780    1.418351
     20          1           0        3.581315   -1.975324    1.376888
     21          1           0        2.918658   -2.494477    0.015555
     22          6           0        3.958522    0.734806    0.124004
     23          6           0       -0.986429    1.138127   -0.170412
     24          6           0       -2.271861    0.378215   -0.045483
     25          6           0       -2.494536   -0.779459   -0.804555
     26          1           0       -1.809188   -1.122389   -1.365853
     27          6           0       -3.731402   -1.427220   -0.731881
     28          1           0       -3.889644   -2.205505   -1.253473
     29          6           0       -4.726451   -0.936056    0.098705
     30          1           0       -5.564580   -1.379560    0.146446
     31          6           0       -4.502560    0.205163    0.864023
     32          1           0       -5.180482    0.531393    1.445101
     33          6           0       -3.284523    0.863792    0.772833
     34          1           0       -3.141095    1.656771    1.276521
     35          1           0        4.614571    0.005115    0.129681
     36          1           0        3.944419    1.163797    1.005794
     37          1           0        2.393451    0.063259   -2.314922
     38          1           0        4.211312    1.394653   -0.554636
 ---------------------------------------------------------------------

 SCF Done:  E(RPBE1PBE) =  -808.024455270     A.U. after   17 cycles

 The electronic state is 1-A.
 Alpha  occ. eigenvalues --  -18.98592 -18.97364 -10.11762 -10.11374 -10.10941
 Alpha  occ. eigenvalues --  -10.10840 -10.10711 -10.10650 -10.10523 -10.10082
 Alpha  occ. eigenvalues --  -10.09617 -10.09516 -10.08888 -10.08249 -10.07915
 Alpha  occ. eigenvalues --  -10.07490 -10.06384 -10.06106 -10.03317  -0.82976
 Alpha  occ. eigenvalues --   -0.80596  -0.76521  -0.75628  -0.67256  -0.65999
 Alpha  occ. eigenvalues --   -0.65539  -0.65071  -0.62983  -0.59782  -0.56813
 Alpha  occ. eigenvalues --   -0.54466  -0.52197  -0.51211  -0.47808  -0.45582
 Alpha  occ. eigenvalues --   -0.43381  -0.40436  -0.38493  -0.38159  -0.36650
 Alpha  occ. eigenvalues --   -0.35675  -0.34705  -0.34449  -0.33567  -0.32512
 Alpha  occ. eigenvalues --   -0.31841  -0.30952  -0.30551  -0.29977  -0.28974
 Alpha  occ. eigenvalues --   -0.27237  -0.26695  -0.25923  -0.25340  -0.23972
 Alpha  occ. eigenvalues --   -0.23292  -0.22578  -0.22184  -0.21747  -0.20386
 Alpha  occ. eigenvalues --   -0.19459  -0.18976  -0.17512  -0.16197  -0.14965
 Alpha  occ. eigenvalues --   -0.13148  -0.07615  -0.04388  -0.03344
 Alpha virt. eigenvalues --    0.10801   0.11373   0.16720   0.18119   0.19868
 Alpha virt. eigenvalues --    0.21482   0.22181   0.22848   0.23889   0.24484
 Alpha virt. eigenvalues --    0.25088   0.25566   0.26339   0.27133   0.27820

 Mulliken charges:
               1
     1  O   -0.336887
     2  O   -0.389403
     3  C   -0.445294
     4  C    0.163965
     5  C   -0.136615
     6  C   -0.035078
     7  H   -0.075613
     8  C    0.246150
     9  H   -0.060263
    10  H   -0.043652
    11  C    0.208814
    12  H   -0.057241
    13  C   -0.438130
    14  C    0.293743
    15  H   -0.047610
    16  H   -0.001887
    17  H   -0.047859
    18  C    0.281068
    19  H   -0.042261
    20  H   -0.041045
    21  H   -0.051410
    22  C    0.313421
    23  C    0.098295
    24  C   -0.028872
    25  C    0.093516
    26  H   -0.118810
    27  C    0.064357
    28  H   -0.104842
    29  C    0.059620
    30  H   -0.104678
    31  C    0.061653
    32  H   -0.101391
    33  C    0.096969
    34  H   -0.106837
    35  H   -0.063715
    36  H   -0.040900
    37  H   -0.033563
    38  H   -0.027715
 Sum of Mulliken charges =  -1.00000

 Dipole moment (field-independent basis, Debye):
    X=              0.1975    Y=             -8.3959    Z=              1.4322  Tot=              8.5195
 Quadrupole moment (field-independent basis, Debye-Ang):
   XX=           -134.6510   YY=           -142.4236   ZZ=           -116.2513
   XY=             -1.5105   XZ=             -0.7954   YZ=              6.3284

  Exact polarizability:     238.613       8.241     160.369     -10.797      11.194     131.303
 Approx polarizability:     310.614      16.451     273.839     -22.525      23.578     202.037

 Summary of Natural Population Analysis:

                                       Natural Population
                Natural  -----------------------------------------------
    Atom  No    Charge         Core      Valence    Rydberg      Total
 -----------------------------------------------------------------------
      O    1   -0.65779      1.99975     6.64873    0.00931     8.65779
      O    2   -0.68046      1.99980     6.67297    0.00769     8.68046
      C    3   -0.10438      1.99883     4.08202    0.02353     6.10438
      C    4    0.49809      1.99877     3.44816    0.05499     5.50191
      C    5   -0.34475      1.99876     4.32142    0.02457     6.34475
      C    6   -0.21716      1.99901     4.19616    0.02199     6.21716
      H    7    0.20356      0.00000     0.79292    0.00353     0.79644
      C    8   -0.38250      1.99915     4.36867    0.01468     6.38250
      H    9    0.17641      0.00000     0.81950    0.00409     0.82359
      H   10    0.19708      0.00000     0.79991    0.00301     0.80292
      C   11   -0.37868      1.99912     4.36336    0.01620     6.37868
      H   12    0.18263      0.00000     0.81368    0.00369     0.81737
      C   13   -0.02170      1.99898     4.00283    0.01989     6.02170
      C   14   -0.56937      1.99916     4.55691    0.01331     6.56937
      H   15    0.18553      0.00000     0.81145    0.00302     0.81447
      H   16    0.21792      0.00000     0.77982    0.00226     0.78208
      H   17    0.18249      0.00000     0.81469    0.00281     0.81751
      C   18   -0.57572      1.99917     4.56274    0.01381     6.57572
      H   19    0.18792      0.00000     0.80876    0.00332     0.81208
      H   20    0.18784      0.00000     0.80926    0.00290     0.81216
      H   21    0.18937      0.00000     0.80808    0.00256     0.81063
      C   22   -0.57089      1.99919     4.55506    0.01664     6.57089
      C   23    0.43589      1.99872     3.51991    0.04548     5.56411
      C   24   -0.05156      1.99896     4.03295    0.01965     6.05156
      C   25   -0.18113      1.99902     4.16763    0.01448     6.18113
      H   26    0.17770      0.00000     0.81841    0.00390     0.82230
      C   27   -0.19172      1.99911     4.17838    0.01422     6.19172
      H   28    0.16626      0.00000     0.83054    0.00320     0.83374
      C   29   -0.21330      1.99912     4.19982    0.01436     6.21330
      H   30    0.16409      0.00000     0.83268    0.00324     0.83591
      C   31   -0.19302      1.99911     4.17967    0.01424     6.19302
      H   32    0.16697      0.00000     0.82991    0.00312     0.83303
      C   33   -0.15459      1.99900     4.13849    0.01710     6.15459
      H   34    0.18731      0.00000     0.80722    0.00547     0.81269
      H   35    0.17819      0.00000     0.81899    0.00283     0.82181
      H   36    0.19570      0.00000     0.80113    0.00316     0.80430
      H   37    0.20390      0.00000     0.79233    0.00377     0.79610
      H   38    0.20389      0.00000     0.79048    0.00564     0.79611
 =======================================================================
   * Total *   -1.00000     37.98272    99.57565    0.44163   138.00000

 ******   24 imaginary frequencies (negative Signs) ******

                      1                      2                      3
                      A                      A                      A
 Frequencies --  -1283.3504             -1238.6389             -1234.3295
 Red. masses --      1.0851                 1.0094                 1.0090
 Frc consts  --      1.0529                 0.9124                 0.9057
 IR Inten    --     68.6674                 0.6015                 0.0708

                      4                      5                      6
                      A                      A                      A
 Frequencies --  -1225.4027             -1169.2541             -1127.0423
 Red. masses --      1.0101                 1.0495                 1.0276
 Frc consts  --      0.8937                 0.8453                 0.7691
 IR Inten    --      0.0412                 0.5524                 1.5914

                      7                      8                      9
                      A                      A                      A
 Frequencies --  -1046.0197              -972.9231              -880.4854
 Red. masses --      1.0133                 1.0351                 1.0626
 Frc consts  --      0.6532                 0.5773                 0.4854
 IR Inten    --      2.1281                 0.6093                 2.8139

                     10                     11                     12
                      A                      A                      A
 Frequencies --   -861.1333              -850.3891              -822.4324
 Red. masses --      1.0516                 1.0774                 1.0439
 Frc consts  --      0.4595                 0.4590                 0.4160
 IR Inten    --     11.4009                 2.8425                 6.5984

                     13                     14                     15
                      A                      A                      A
 Frequencies --   -804.8874              -800.9897              -786.0751
 Red. masses --      1.0603                 1.0530                 1.0400
 Frc consts  --      0.4047                 0.3981                 0.3786
 IR Inten    --      2.6322                 2.0540                 2.1991

                     16                     17                     18
                      A                      A                      A
 Frequencies --   -777.0841              -695.0584              -665.5941
 Red. masses --      1.0461                 1.0929                 1.2220
 Frc consts  --      0.3722                 0.3111                 0.3190
 IR Inten    --      5.9672                 0.1214                 0.8595

                     19                     20                     21
                      A                      A                      A
 Frequencies --   -606.0545              -498.0785              -379.5451
 Red. masses --      1.2043                 1.2087                 1.0698
 Frc consts  --      0.2606                 0.1767                 0.0908
 IR Inten    --      5.1772                 8.9247                23.3603

                     22                     23                     24
                      A                      A                      A
 Frequencies --   -371.8256              -200.6558              -138.3005
 Red. masses --      1.3586                 2.0827                 2.6510
 Frc consts  --      0.1107                 0.0494                 0.0299
 IR Inten    --      2.1342                 1.4100                 1.3507

                     25                     26                     27
                      A                      A                      A
 Frequencies --    135.6650               151.1341               209.9475
 Red. masses --      8.3677                 2.3904                 7.1480
 Frc consts  --      0.0907                 0.0322                 0.1856
 IR Inten    --      0.0151                 0.3603                 1.3881

                     28                     29                     30
                      A                      A                      A
 Frequencies --    214.1534               230.4084               266.3050
 Red. masses --      2.5009                 4.7760                 4.3258
 Frc consts  --      0.0676                 0.1494                 0.1807
 IR Inten    --      1.3005                 1.2174                 3.5589

                     31                     32                     33
                      A                      A                      A
 Frequencies --    291.6042               373.6074               393.8782
 Red. masses --      3.6802                 2.3453                 8.1459
 Frc consts  --      0.1844                 0.1929                 0.7446
 IR Inten    --      8.6125                 1.0831                10.9309

                     34                     35                     36
                      A                      A                      A
 Frequencies --    421.6447               425.3296               438.6914
 Red. masses --      3.3973                 3.0229                 3.1937
 Frc consts  --      0.3559                 0.3222                 0.3621
 IR Inten    --      0.8822                 0.9727                 4.3713

                     37                     38                     39
                      A                      A                      A
 Frequencies --    448.8496               468.4500               482.8260
 Red. masses --      5.9253                 2.3178                 2.9408
 Frc consts  --      0.7033                 0.2997                 0.4039
 IR Inten    --      0.8459                 5.7834                 2.4239

                     40                     41                     42
                      A                      A                      A
 Frequencies --    543.6973               557.7486               573.8716
 Red. masses --      3.6824                11.0334                 4.5005
 Frc consts  --      0.6413                 2.0223                 0.8733
 IR Inten    --      2.7685                 0.2465                 0.9387

                     43                     44                     45
                      A                      A                      A
 Frequencies --    587.4383               600.8161               629.3083
 Red. masses --      2.5802                 4.1089                 4.1489
 Frc consts  --      0.5246                 0.8739                 0.9681
 IR Inten    --      6.9348                20.4435                 5.1603

                     46                     47                     48
                      A                      A                      A
 Frequencies --    663.6181               670.1337               678.0620
 Red. masses --      5.0347                 2.2297                 1.2026
 Frc consts  --      1.3064                 0.5900                 0.3258
 IR Inten    --     15.6061                 1.2604                21.4353

                     49                     50                     51
                      A                      A                      A
 Frequencies --    703.8403               717.8784               724.7884
 Red. masses --      1.2327                 1.8402                 1.9419
 Frc consts  --      0.3598                 0.5588                 0.6010
 IR Inten    --     13.1348                18.3765                 8.0657

                     52                     53                     54
                      A                      A                      A
 Frequencies --    740.7452               755.5390               762.7970
 Red. masses --      4.4625                 4.3404                 4.1970
 Frc consts  --      1.4427                 1.4598                 1.4388
 IR Inten    --     11.0807                43.4881                 8.5831

                     55                     56                     57
                      A                      A                      A
 Frequencies --    790.1941               830.1549               851.0876
 Red. masses --      5.0567                 6.7004                 4.7806
 Frc consts  --      1.8603                 2.7206                 2.0403
 IR Inten    --      7.4735                 2.2441                 2.5155

                     58                     59                     60
                      A                      A                      A
 Frequencies --    870.6898               888.0299               891.6318
 Red. masses --      5.7473                 3.6049                 3.0067
 Frc consts  --      2.5671                 1.6749                 1.4084
 IR Inten    --      5.9478                14.5690                 2.8099

                     61                     62                     63
                      A                      A                      A
 Frequencies --    930.4023               995.3920              1024.3694
 Red. masses --      5.0629                 3.0730                 4.6700
 Frc consts  --      2.5822                 1.7939                 2.8872
 IR Inten    --     11.8733                19.3148                 3.2463

                     64                     65                     66
                      A                      A                      A
 Frequencies --   1026.5020              1040.8023              1042.5723
 Red. masses --      2.7907                 5.6211                 3.1162
 Frc consts  --      1.7325                 3.5876                 1.9956
 IR Inten    --     16.9871                 5.0113                 2.1918

                     67                     68                     69
                      A                      A                      A
 Frequencies --   1063.6279              1079.3404              1087.0631
 Red. masses --      1.7642                 1.1954                 1.2671
 Frc consts  --      1.1759                 0.8205                 0.8822
 IR Inten    --      9.4055                 2.6804                 1.3571

                     70                     71                     72
                      A                      A                      A
 Frequencies --   1096.1728              1103.9695              1122.2609
 Red. masses --      2.2820                 1.0702                 1.1211
 Frc consts  --      1.6156                 0.7684                 0.8319
 IR Inten    --      1.4316                 0.9365                 0.3805

                     73                     74                     75
                      A                      A                      A
 Frequencies --   1138.9244              1158.8898              1176.0142
 Red. masses --      1.0984                 1.3993                 2.3077
 Frc consts  --      0.8394                 1.1073                 1.8804
 IR Inten    --      7.2137                 5.2403                19.3106

                     76                     77                     78
                      A                      A                      A
 Frequencies --   1204.1978              1222.6280              1258.1877
 Red. masses --      2.2138                 5.5937                 5.0429
 Frc consts  --      1.8914                 4.9265                 4.7035
 IR Inten    --      3.9797                 3.9718                36.8372

                     79                     80                     81
                      A                      A                      A
 Frequencies --   1280.1278              1294.7640              1345.9739
 Red. masses --      5.6566                 3.8527                 9.0249
 Frc consts  --      5.4615                 3.8054                 9.6331
 IR Inten    --     20.9657                11.2375                61.7489

                     82                     83                     84
                      A                      A                      A
 Frequencies --   1364.0763              1394.6994              1412.7970
 Red. masses --      8.2089                 8.7811                10.0939
 Frc consts  --      8.9994                10.0637                11.8705
 IR Inten    --      1.8942                 5.8261                31.5158

                     85                     86                     87
                      A                      A                      A
 Frequencies --   1433.4921              1614.5497              1618.6685
 Red. masses --      9.1402                11.4361                11.3304
 Frc consts  --     11.0661                17.5644                17.4909
 IR Inten    --     18.8114               387.1105               110.4475

                     88                     89                     90
                      A                      A                      A
 Frequencies --   1644.3009              1685.6286              4128.5513
 Red. masses --     10.6517                11.4564                 1.0882
 Frc consts  --     16.9681                19.1788                10.9279
 IR Inten    --    256.0953               406.0167                16.8495

                     91                     92                     93
                      A                      A                      A
 Frequencies --   4174.5821              4182.8050              4228.4975
 Red. masses --      1.0583                 1.0600                 1.0327
 Frc consts  --     10.8662                10.9268                10.8789
 IR Inten    --     24.2217                49.4379                21.9843

                     94                     95                     96
                      A                      A                      A
 Frequencies --   4230.0737              4232.2783              4289.8558
 Red. masses --      1.0321                 1.0321                 1.1109
 Frc consts  --     10.8806                10.8926                12.0456
 IR Inten    --     13.3147                43.2696                 2.3640

                     97                     98                     99
                      A                      A                      A
 Frequencies --   4301.6920              4407.2402              4415.3024
 Red. masses --      1.1094                 1.1057                 1.1065
 Frc consts  --     12.0953                12.6532                12.7094
 IR Inten    --     37.2566                11.5710                 7.0743

                    100                    101                    102
                      A                      A                      A
 Frequencies --   4418.8134              4425.2397              4427.4772
 Red. masses --      1.1065                 1.1060                 1.1061
 Frc consts  --     12.7296                12.7606                12.7749
 IR Inten    --     15.3441                 9.0278                 4.3430

                    103                    104                    105
                      A                      A                      A
 Frequencies --   4429.3024              4753.2704              4759.3498
 Red. masses --      1.1063                 1.0866                 1.0878
 Frc consts  --     12.7872                14.4645                14.5182
 IR Inten    --      4.4342                 1.9689                 5.3661

                    106                    107                    108
                      A                      A                      A
 Frequencies --   4771.1944              4773.3708              4777.9313
 Red. masses --      1.0892                 1.0903                 1.0926
 Frc consts  --     14.6087                14.6370                14.6961
 IR Inten    --      0.8441                 2.2238                11.7694

 - Thermochemistry -
 -------------------
 Temperature   298.150 Kelvin.  Pressure   1.00000 Atm.
 Atom     1 has atomic number  8 and mass  15.99491

 Molecular mass:   255.13850 amu.
 Principal axes and moments of inertia in atomic units:
                           1         2         3
     Eigenvalues --  2308.101617107.461847887.62787
           X            0.99998  -0.00642   0.00259
           Y            0.00635   0.99962   0.02684
           Z           -0.00276  -0.02682   0.99964
 This molecule is an asymmetric top.
 Rotational symmetry number  1.
 Warning -- assumption of classical behavior for rotation
           may cause significant error
 Rotational temperatures (Kelvin)      0.03753     0.01219     0.01098
 Rotational constants (GHZ):           0.78192     0.25392     0.22881
   24 imaginary frequencies ignored.
 Zero-point vibrational energy     837217.2 (Joules/Mol)
                                  200.09972 (Kcal/Mol)
 Warning -- explicit consideration of  20 degrees of freedom as
           vibrations may cause significant error
 Vibrational temperatures:    195.19   217.45   302.07   308.12   331.51
          (Kelvin)            383.15   419.55   537.54   566.70   606.65
                              611.95   631.18   645.79   674.00   694.68
                              782.26   802.48   825.67   845.19   864.44
                              905.43   954.80   964.17   975.58  1012.67
                             1032.87  1042.81  1065.77  1087.05  1097.49
                             1136.91  1194.41  1224.53  1252.73  1277.68
                             1282.86  1338.64  1432.15  1473.84  1476.91
                             1497.48  1500.03  1530.32  1552.93  1564.04
                             1577.15  1588.37  1614.68  1638.66  1667.38
                             1692.02  1732.57  1759.09  1810.25  1841.82
                             1862.88  1936.56  1962.60  2006.66  2032.70
                             2062.48  2322.98  2328.90  2365.78  2425.24
                             5940.06  6006.29  6018.12  6083.86  6086.13
                             6089.30  6172.15  6189.18  6341.04  6352.64
                             6357.69  6366.93  6370.15  6372.78  6838.90
                             6847.64  6864.68  6867.82  6874.38

 Zero-point correction=                           0.318879 (Hartree/Particle)
 Thermal correction to Energy=                    0.330701
 Thermal correction to Enthalpy=                  0.331645
 Thermal correction to Gibbs Free Energy=         0.281714
 Sum of electronic and zero-point Energies=           -807.705576
 Sum of electronic and thermal Energies=              -807.693755
 Sum of electronic and thermal Enthalpies=            -807.692810
 Sum of electronic and thermal Free Energies=         -807.742741

                     E (Thermal)             CV                S
                      KCal/Mol        Cal/Mol-Kelvin    Cal/Mol-Kelvin
 Total                  207.518             53.175            105.088
 Electronic               0.000              0.000              0.000
 Translational            0.889              2.981             42.510
 Rotational               0.889              2.981             33.225
 Vibrational            205.740             47.213             29.353
 Vibration     1          0.613              1.918              2.864
 Vibration     2          0.619              1.901              2.658
 Vibration     3          0.642              1.826              2.044
 Vibration     4          0.644              1.819              2.008
 Vibration     5          0.652              1.795              1.876
 Vibration     6          0.672              1.735              1.620
 Vibration     7          0.687              1.689              1.465
 Vibration     8          0.745              1.526              1.065
 Vibration     9          0.761              1.483              0.985
 Vibration    10          0.784              1.423              0.886
 Vibration    11          0.787              1.415              0.874
 Vibration    12          0.799              1.386              0.831
 Vibration    13          0.808              1.363              0.799
 Vibration    14          0.826              1.320              0.742
 Vibration    15          0.839              1.288              0.702
 Vibration    16          0.899              1.153              0.557
 Vibration    17          0.913              1.123              0.528
 Vibration    18          0.930              1.088              0.497
 Vibration    19          0.945              1.059              0.472
 Vibration    20          0.959              1.030              0.448

 Normal termination of Gaussian 16 at Mon Mar  6 11:36:14 2023.
