 Gaussian 16, Revision C.01,
 Gaussian 16:  ES64L-G16RevC.01  3-Jul-2019

 ----------------------------------------------------------------------
 #p pop=(regular,nbo,savenbos) freq=noraman def2svp empiricaldispersion
 =gd3bj output=wfx pbe1pbe
 ----------------------------------------------------------------------

 ----------------------------------------
 VEYGOW_Complex_0_Ligand_0_NN_Cu_oriented
 ----------------------------------------
 Symbolic Z-matrix:
 Charge = -1 Multiplicity = 1

                         Standard orientation:
 ---------------------------------------------------------------------
 Center     Atomic      Atomic             Coordinates (Angstroms)
 Number     Number       Type             X           Y           Z
 ---------------------------------------------------------------------
      1         16           0       -1.166129   -1.804920   -0.742092
      2          8           0       -1.961703   -1.506169   -1.900515
      3          8           0       -0.962477   -3.192557   -0.426502
      4          7           0        2.021646    0.766160   -1.462459
      5          7           0        0.220239   -1.029344   -0.965791
      6          6           0        2.882686    1.721035   -1.768818
      7          1           0        2.704993    2.097859   -2.653859
      8          6           0        3.931404    2.090593   -0.913120
      9          6           0        3.190553    0.404088    0.638662
     10          6           0        3.304756   -0.367901    1.819509
     11          6           0        2.438231   -1.388813    2.029758
     12          1           0        2.458246   -2.073576    2.831940
     13          6           0        1.378965   -1.686669    1.140856
     14          1           0        0.772374   -2.470999    1.361102
     15          6           0        1.207243   -0.923634    0.004650
     16          6           0        2.158533    0.109652   -0.265443
     17          6           0        4.086641    1.448514    0.274972
     18          1           0        4.728195    1.643755    0.895503
     19          6           0       -1.940129   -1.091107    0.702049
     20          1           0       -1.289764   -1.153040    1.404254
     21          1           0       -2.744521   -1.578329    0.937130
     22          6           0       -2.482292    0.297392    0.542818
     23          6           0       -1.672437    1.397623    0.448753
     24          6           0       -2.196989    2.662608    0.372988
     25          1           0       -1.690505    3.548797    0.373214
     26          6           0       -3.553244    2.851487    0.394058
     27          1           0       -3.915488    3.706580    0.342719
     28          6           0       -4.367883    1.758793    0.482526
     29          1           0       -5.363485    2.090990    0.766250
     30          6           0       -3.835808    0.520438    0.550524
     31          1           0       -4.409607   -0.207017    0.596922
     32          1           0        4.600496    2.860621   -1.208645
     33          1           0       -0.671137    1.203480    0.614976
     34          1           0        3.997135   -0.182899    2.497401
 ---------------------------------------------------------------------

 SCF Done:  E(RPBE1PBE) =  -1273.63098869     A.U. after   15 cycles

 The electronic state is 1-A.
 Alpha  occ. eigenvalues --  -89.04812 -19.01723 -19.01214 -14.25693 -14.19125
 Alpha  occ. eigenvalues --  -10.13627 -10.13279 -10.13223 -10.12999 -10.12976
 Alpha  occ. eigenvalues --  -10.12566 -10.12556 -10.12248 -10.12043 -10.11365
 Alpha  occ. eigenvalues --  -10.11251 -10.10981 -10.10948 -10.10209 -10.09549
 Alpha  occ. eigenvalues --  -10.08356  -8.01682  -5.95862  -5.95796  -5.95746
 Alpha  occ. eigenvalues --   -0.97141  -0.84592  -0.83892  -0.79025  -0.76288
 Alpha  occ. eigenvalues --   -0.73432  -0.71015  -0.69667  -0.66850  -0.65021
 Alpha  occ. eigenvalues --   -0.63421  -0.61454  -0.55177  -0.53874  -0.52949
 Alpha  occ. eigenvalues --   -0.51970  -0.50490  -0.45804  -0.44661  -0.44011
 Alpha  occ. eigenvalues --   -0.41212  -0.40819  -0.39679  -0.37775  -0.37011
 Alpha  occ. eigenvalues --   -0.35621  -0.34449  -0.33870  -0.33160  -0.32714
 Alpha  occ. eigenvalues --   -0.31856  -0.31557  -0.30955  -0.30750  -0.28958
 Alpha  occ. eigenvalues --   -0.28735  -0.26518  -0.26249  -0.24529  -0.24250
 Alpha  occ. eigenvalues --   -0.23478  -0.20948  -0.19048  -0.18071  -0.16544
 Alpha  occ. eigenvalues --   -0.16485  -0.15471  -0.15156  -0.14476  -0.13649
 Alpha  occ. eigenvalues --   -0.13393  -0.08891  -0.05891
 Alpha virt. eigenvalues --    0.07496   0.10289   0.10522   0.10841   0.15677
 Alpha virt. eigenvalues --    0.17818   0.18935   0.20630   0.21085   0.21575
 Alpha virt. eigenvalues --    0.22177   0.22748   0.25114   0.25354   0.25561

 Mulliken charges:
               1
     1  S    0.788891
     2  O   -0.508121
     3  O   -0.522277
     4  N   -0.128698
     5  N   -0.417489
     6  C    0.100310
     7  H   -0.056198
     8  C   -0.025738
     9  C    0.011135
    10  C   -0.008139
    11  C    0.038887
    12  H   -0.037258
    13  C   -0.117946
    14  H   -0.059998
    15  C    0.117326
    16  C   -0.029870
    17  C    0.164255
    18  H   -0.153381
    19  C    0.217020
    20  H   -0.028269
    21  H   -0.029094
    22  C   -0.109151
    23  C    0.073531
    24  C    0.035821
    25  H   -0.043832
    26  C    0.024774
    27  H   -0.116884
    28  C    0.007375
    29  H   -0.012072
    30  C    0.089306
    31  H   -0.123076
    32  H   -0.025340
    33  H   -0.010217
    34  H   -0.105583
 Sum of Mulliken charges =  -1.00000

 Dipole moment (field-independent basis, Debye):
    X=              0.8837    Y=              5.9489    Z=              5.5249  Tot=              8.1667
 Quadrupole moment (field-independent basis, Debye-Ang):
   XX=           -144.6588   YY=           -147.4147   ZZ=           -142.5480
   XY=             -1.4718   XZ=             -7.2054   YZ=             -9.0551

  Exact polarizability:     251.182      25.191     201.971      14.920     -27.945     157.179
 Approx polarizability:     354.068      55.161     331.977      43.259     -55.559     284.140

 Summary of Natural Population Analysis:

                                       Natural Population
                Natural  -----------------------------------------------
    Atom  No    Charge         Core      Valence    Rydberg      Total
 -----------------------------------------------------------------------
      S    1    2.29491      9.99832     3.46980    0.23697    13.70509
      O    2   -0.97571      1.99976     6.96712    0.00883     8.97571
      O    3   -1.00317      1.99976     6.99482    0.00858     9.00317
      N    4   -0.42288      1.99933     5.40601    0.01754     7.42288
      N    5   -0.92290      1.99928     5.90740    0.01622     7.92290
      C    6    0.05695      1.99913     3.92043    0.02349     5.94305
      H    7    0.16779      0.00000     0.82933    0.00288     0.83221
      C    8   -0.27858      1.99908     4.26613    0.01337     6.27858
      C    9   -0.07511      1.99894     4.06023    0.01594     6.07511
      C   10   -0.28954      1.99897     4.27342    0.01714     6.28954
      C   11   -0.19063      1.99905     4.17674    0.01484     6.19063
      H   12    0.20197      0.00000     0.79467    0.00336     0.79803
      C   13   -0.31735      1.99896     4.30107    0.01731     6.31735
      H   14    0.21697      0.00000     0.77804    0.00500     0.78303
      C   15    0.18905      1.99887     3.78468    0.02740     5.81095
      C   16    0.16649      1.99877     3.80933    0.02540     5.83351
      C   17   -0.14041      1.99898     4.12558    0.01585     6.14041
      H   18    0.15852      0.00000     0.83826    0.00323     0.84148
      C   19   -0.60677      1.99881     4.58217    0.02579     6.60677
      H   20    0.21320      0.00000     0.78287    0.00393     0.78680
      H   21    0.20822      0.00000     0.78702    0.00475     0.79178
      C   22   -0.00270      1.99894     3.98424    0.01953     6.00270
      C   23   -0.18991      1.99887     4.17509    0.01596     6.18991
      C   24   -0.20421      1.99904     4.19075    0.01442     6.20421
      H   25    0.19825      0.00000     0.79837    0.00339     0.80175
      C   26   -0.18607      1.99905     4.17219    0.01484     6.18607
      H   27    0.15951      0.00000     0.83727    0.00321     0.84049
      C   28   -0.22628      1.99900     4.21252    0.01477     6.22628
      H   29    0.20683      0.00000     0.78946    0.00370     0.79317
      C   30   -0.18807      1.99889     4.17325    0.01593     6.18807
      H   31    0.16951      0.00000     0.82697    0.00352     0.83049
      H   32    0.20408      0.00000     0.79231    0.00362     0.79592
      H   33    0.22310      0.00000     0.77262    0.00428     0.77690
      H   34    0.18496      0.00000     0.81157    0.00347     0.81504
 =======================================================================
   * Total *   -1.00000     49.97980   105.39173    0.62847   156.00000

 ******   15 imaginary frequencies (negative Signs) ******

                      1                      2                      3
                      A                      A                      A
 Frequencies --  -1512.3244             -1364.0747             -1332.2695
 Red. masses --      1.0547                 1.0613                 1.0461
 Frc consts  --      1.4213                 1.1635                 1.0939
 IR Inten    --     13.0957                26.7913                 6.7098

                      4                      5                      6
                      A                      A                      A
 Frequencies --  -1166.9666             -1088.6078              -872.6972
 Red. masses --      1.0209                 1.0696                 1.0348
 Frc consts  --      0.8191                 0.7468                 0.4643
 IR Inten    --     23.5594                 5.0372                11.1995

                      7                      8                      9
                      A                      A                      A
 Frequencies --   -849.6109              -838.6219              -817.1734
 Red. masses --      1.0470                 1.0795                 1.1232
 Frc consts  --      0.4453                 0.4473                 0.4419
 IR Inten    --     24.1248                 1.9958                 9.9553

                     10                     11                     12
                      A                      A                      A
 Frequencies --   -657.4295              -456.7177              -413.3964
 Red. masses --      1.1845                 1.3645                 1.2256
 Frc consts  --      0.3016                 0.1677                 0.1234
 IR Inten    --      4.1796                 4.2021                11.0954

                     13                     14                     15
                      A                      A                      A
 Frequencies --   -395.2312              -114.5499               -61.7516
 Red. masses --      1.1110                 6.5468                 6.6763
 Frc consts  --      0.1023                 0.0506                 0.0150
 IR Inten    --     14.2009                 0.7554                 1.8993

                     16                     17                     18
                      A                      A                      A
 Frequencies --     18.6654                69.9786               134.8343
 Red. masses --      5.2367                 6.6901                 5.3376
 Frc consts  --      0.0011                 0.0193                 0.0572
 IR Inten    --      0.5932                 2.9402                 2.3582

                     19                     20                     21
                      A                      A                      A
 Frequencies --    166.5417               184.5749               200.8484
 Red. masses --      4.7260                 2.6040                 3.5916
 Frc consts  --      0.0772                 0.0523                 0.0854
 IR Inten    --      2.7908                 6.5008                 5.3932

                     22                     23                     24
                      A                      A                      A
 Frequencies --    240.0520               244.8018               248.4469
 Red. masses --      3.3472                 3.4150                 3.2453
 Frc consts  --      0.1136                 0.1206                 0.1180
 IR Inten    --      1.0516                 2.8684                 2.1323

                     25                     26                     27
                      A                      A                      A
 Frequencies --    280.6428               306.1891               318.1221
 Red. masses --      8.4074                 5.5121                 5.5291
 Frc consts  --      0.3901                 0.3045                 0.3297
 IR Inten    --      0.6629                 0.5251                 0.9544

                     28                     29                     30
                      A                      A                      A
 Frequencies --    370.7804               392.9673               475.0853
 Red. masses --      5.6305                 6.1784                 3.2219
 Frc consts  --      0.4561                 0.5621                 0.4285
 IR Inten    --      7.1735                 1.4716                 2.0547

                     31                     32                     33
                      A                      A                      A
 Frequencies --    484.5984               517.2843               527.1832
 Red. masses --      3.4389                 5.8434                 4.1886
 Frc consts  --      0.4758                 0.9212                 0.6859
 IR Inten    --      6.0222                28.5822                 3.7616

                     34                     35                     36
                      A                      A                      A
 Frequencies --    536.6875               550.4068               582.7067
 Red. masses --      4.7379                 4.6722                 4.8345
 Frc consts  --      0.8040                 0.8339                 0.9672
 IR Inten    --     42.2433                34.0809                61.9735

                     37                     38                     39
                      A                      A                      A
 Frequencies --    597.6108               617.3772               631.7377
 Red. masses --      3.7362                 2.4965                 3.0234
 Frc consts  --      0.7862                 0.5606                 0.7109
 IR Inten    --     71.7619                17.2897                15.9692

                     40                     41                     42
                      A                      A                      A
 Frequencies --    633.4442               662.5526               683.5192
 Red. masses --      4.1955                 2.5798                 3.6274
 Frc consts  --      0.9919                 0.6672                 0.9985
 IR Inten    --      2.4386                 5.4982                52.8465

                     43                     44                     45
                      A                      A                      A
 Frequencies --    708.3286               722.7983               736.9992
 Red. masses --      4.4100                 4.6495                 4.9254
 Frc consts  --      1.3036                 1.4312                 1.5762
 IR Inten    --      4.6706                 1.3370                18.9940

                     46                     47                     48
                      A                      A                      A
 Frequencies --    754.9186               792.4932               800.1857
 Red. masses --      4.3969                 1.8918                 2.1869
 Frc consts  --      1.4764                 0.7000                 0.8250
 IR Inten    --     42.8790                14.3094                 0.1327

                     49                     50                     51
                      A                      A                      A
 Frequencies --    807.9005               827.1478               848.4825
 Red. masses --      2.8396                 2.5512                 2.7828
 Frc consts  --      1.0920                 1.0284                 1.1804
 IR Inten    --      6.9862                43.8190                25.4070

                     52                     53                     54
                      A                      A                      A
 Frequencies --    856.5404               871.3288               873.7116
 Red. masses --      3.4320                 1.9710                 1.9476
 Frc consts  --      1.4835                 0.8817                 0.8760
 IR Inten    --     70.6949                 7.2927                51.6070

                     55                     56                     57
                      A                      A                      A
 Frequencies --    876.9070               909.3985               969.6115
 Red. masses --      5.8762                 1.6700                 2.2275
 Frc consts  --      2.6623                 0.8137                 1.2338
 IR Inten    --      3.3147                30.6237                12.7667

                     58                     59                     60
                      A                      A                      A
 Frequencies --    978.2576              1004.2907              1064.5484
 Red. masses --      2.9115                 1.3510                 1.5942
 Frc consts  --      1.6416                 0.8028                 1.0644
 IR Inten    --    128.3530                 2.5947                 3.0741

                     61                     62                     63
                      A                      A                      A
 Frequencies --   1069.5989              1091.3281              1123.1089
 Red. masses --      4.4522                 1.6244                 1.9000
 Frc consts  --      3.0010                 1.1398                 1.4121
 IR Inten    --      1.6782                56.1652                82.3325

                     64                     65                     66
                      A                      A                      A
 Frequencies --   1186.5454              1226.5350              1261.9939
 Red. masses --      3.2656                 1.3419                 3.8526
 Frc consts  --      2.7088                 1.1894                 3.6151
 IR Inten    --     23.7221                 3.7134                28.2276

                     67                     68                     69
                      A                      A                      A
 Frequencies --   1263.3819              1270.6598              1339.0887
 Red. masses --      5.9684                 6.7128                 6.6507
 Frc consts  --      5.6128                 6.3857                 7.0265
 IR Inten    --    651.5564               135.0917                48.1550

                     70                     71                     72
                      A                      A                      A
 Frequencies --   1360.7188              1372.9494              1455.1298
 Red. masses --      5.1630                 8.0518                19.6376
 Frc consts  --      5.6324                 8.9423                24.4986
 IR Inten    --     48.7291                 1.2290               224.6585

                     73                     74                     75
                      A                      A                      A
 Frequencies --   1466.4893              1485.6326              1520.0837
 Red. masses --      7.8554                 5.5108                10.0387
 Frc consts  --      9.9535                 7.1662                13.6666
 IR Inten    --    376.4182                 5.8086                28.8829

                     76                     77                     78
                      A                      A                      A
 Frequencies --   1525.3119              1560.7478              1578.3220
 Red. masses --      6.7631                 7.4101                 5.9898
 Frc consts  --      9.2707                10.6351                 8.7913
 IR Inten    --      6.1121               151.8682                13.2442

                     79                     80                     81
                      A                      A                      A
 Frequencies --   1629.1014              1687.7325              1711.9793
 Red. masses --     10.2222                 9.5045                 8.4576
 Frc consts  --     15.9842                15.9510                14.6048
 IR Inten    --     80.5221                41.9129                 9.9495

                     82                     83                     84
                      A                      A                      A
 Frequencies --   1745.7586              1804.0632              3248.6722
 Red. masses --      9.9519                 8.3551                 1.0924
 Frc consts  --     17.8700                16.0216                 6.7925
 IR Inten    --      0.3072                11.8600                37.3919

                     85                     86                     87
                      A                      A                      A
 Frequencies --   3494.7163              3564.1148              3794.9263
 Red. masses --      1.0916                 1.0917                 1.0910
 Frc consts  --      7.8550                 8.1708                 9.2576
 IR Inten    --     33.5132                30.6673                 0.0364

                     88                     89                     90
                      A                      A                      A
 Frequencies --   3924.5768              3986.8542              4307.5214
 Red. masses --      1.0914                 1.0909                 1.0897
 Frc consts  --      9.9045                10.2167                11.9124
 IR Inten    --      8.9895                 1.3327                 6.3675

                     91                     92                     93
                      A                      A                      A
 Frequencies --   4414.7095              4462.8779              4661.8285
 Red. masses --      1.0901                 1.0636                 1.1040
 Frc consts  --     12.5177                12.4808                14.1357
 IR Inten    --      8.9999                 3.5867                 2.8138

                     94                     95                     96
                      A                      A                      A
 Frequencies --   5027.4676              5054.6968              5259.0293
 Red. masses --      1.0900                 1.0890                 1.0893
 Frc consts  --     16.2317                16.3934                17.7500
 IR Inten    --      1.5891                 1.8232                 1.1778

 - Thermochemistry -
 -------------------
 Temperature   298.150 Kelvin.  Pressure   1.00000 Atm.
 Atom     1 has atomic number 16 and mass  31.97207

 Molecular mass:   297.06977 amu.
 Principal axes and moments of inertia in atomic units:
                           1         2         3
     Eigenvalues --  4165.886668334.60438**********
           X            0.99998  -0.00594  -0.00225
           Y            0.00587   0.99954  -0.02992
           Z            0.00242   0.02990   0.99955
 This molecule is an asymmetric top.
 Rotational symmetry number  1.
 Warning -- assumption of classical behavior for rotation
           may cause significant error
 Rotational temperatures (Kelvin)      0.02079     0.01039     0.00855
 Rotational constants (GHZ):           0.43322     0.21654     0.17810
   15 imaginary frequencies ignored.
 Zero-point vibrational energy     681989.5 (Joules/Mol)
                                  162.99940 (Kcal/Mol)
 Warning -- explicit consideration of  23 degrees of freedom as
           vibrations may cause significant error
 Vibrational temperatures:     26.86   100.68   194.00   239.62   265.56
          (Kelvin)            288.98   345.38   352.22   357.46   403.78
                              440.54   457.71   533.47   565.39   683.54
                              697.23   744.26   758.50   772.17   791.91
                              838.39   859.83   888.27   908.93   911.38
                              953.27   983.43  1019.13  1039.95  1060.38
                             1086.16  1140.22  1151.29  1162.39  1190.08
                             1220.78  1232.37  1253.65  1257.08  1261.67
                             1308.42  1395.05  1407.49  1444.95  1531.65
                             1538.91  1570.18  1615.90  1707.17  1764.71
                             1815.73  1817.72  1828.20  1926.65  1957.77
                             1975.37  2093.61  2109.95  2137.49  2187.06
                             2194.58  2245.57  2270.85  2343.91  2428.27
                             2463.16  2511.76  2595.64  4674.11  5028.12
                             5127.97  5460.05  5646.59  5736.19  6197.56
                             6351.78  6421.09  6707.33  7233.40  7272.58
                             7566.57

 Zero-point correction=                           0.259756 (Hartree/Particle)
 Thermal correction to Energy=                    0.273841
 Thermal correction to Enthalpy=                  0.274785
 Thermal correction to Gibbs Free Energy=         0.217869
 Sum of electronic and zero-point Energies=          -1273.371233
 Sum of electronic and thermal Energies=             -1273.357147
 Sum of electronic and thermal Enthalpies=           -1273.356203
 Sum of electronic and thermal Free Energies=        -1273.413119

                     E (Thermal)             CV                S
                      KCal/Mol        Cal/Mol-Kelvin    Cal/Mol-Kelvin
 Total                  171.838             58.033            119.790
 Electronic               0.000              0.000              0.000
 Translational            0.889              2.981             42.963
 Rotational               0.889              2.981             34.219
 Vibrational            170.061             52.071             42.607
 Vibration     1          0.593              1.986              6.771
 Vibration     2          0.598              1.968              4.154
 Vibration     3          0.613              1.919              2.876
 Vibration     4          0.624              1.884              2.474
 Vibration     5          0.631              1.861              2.282
 Vibration     6          0.638              1.839              2.125
 Vibration     7          0.657              1.779              1.802
 Vibration     8          0.660              1.771              1.768
 Vibration     9          0.662              1.765              1.742
 Vibration    10          0.680              1.709              1.530
 Vibration    11          0.697              1.662              1.383
 Vibration    12          0.705              1.639              1.320
 Vibration    13          0.743              1.532              1.077
 Vibration    14          0.760              1.485              0.989
 Vibration    15          0.832              1.305              0.723
 Vibration    16          0.841              1.284              0.698
 Vibration    17          0.872              1.212              0.616
 Vibration    18          0.882              1.190              0.594
 Vibration    19          0.892              1.169              0.572
 Vibration    20          0.906              1.139              0.543
 Vibration    21          0.940              1.069              0.480
 Vibration    22          0.956              1.037              0.454
 Vibration    23          0.977              0.995              0.421

 Normal termination of Gaussian 16 at Mon Mar  6 11:22:15 2023.
