 Gaussian 16, Revision C.01,
 Gaussian 16:  ES64L-G16RevC.01  3-Jul-2019

 ----------------------------------------------------------------------
 #p pop=(regular,nbo,savenbos) freq=noraman def2svp empiricaldispersion
 =gd3bj output=wfx pbe1pbe
 ----------------------------------------------------------------------

 ----------------------------------------
 VIFHIB_Complex_1_Ligand_1_ON_Cu_oriented
 ----------------------------------------
 Symbolic Z-matrix:
 Charge = -1 Multiplicity = 1

                         Standard orientation:
 ---------------------------------------------------------------------
 Center     Atomic      Atomic             Coordinates (Angstroms)
 Number     Number       Type             X           Y           Z
 ---------------------------------------------------------------------
      1          8           0       -1.279702    0.522841    1.311242
      2          7           0        1.124242    0.038554    0.213301
      3          6           0       -2.564488   -0.365829   -0.505905
      4          6           0       -1.269349    0.224863   -0.048449
      5          6           0       -0.086784   -0.445559   -0.459186
      6          6           0        1.727130    1.165552   -0.488915
      7          6           0        2.132545   -1.031745    0.313961
      8          1           0       -2.677781   -1.197232   -0.038732
      9          1           0       -1.206095    1.058107   -0.520838
     10          1           0       -0.210862   -1.368425   -0.226396
     11          1           0        0.032615   -0.368334   -1.409239
     12          1           0        1.086018    1.875634   -0.569389
     13          1           0        2.011659    0.891645   -1.363677
     14          1           0        2.485352    1.474822    0.012639
     15          1           0        1.748043   -1.786420    0.766832
     16          1           0        2.888783   -0.711243    0.811624
     17          1           0        2.415089   -1.294421   -0.564692
     18          1           0       -3.294180    0.220330   -0.297891
     19          1           0       -2.545041   -0.530768   -1.452325
 ---------------------------------------------------------------------

 SCF Done:  E(RPBE1PBE) =  -326.823820319     A.U. after   17 cycles

 The electronic state is 1-A.
 Alpha  occ. eigenvalues --  -18.81769 -14.19731 -10.06113 -10.05583 -10.01729
 Alpha  occ. eigenvalues --   -9.99505  -9.97976  -0.77462  -0.67541  -0.60350
 Alpha  occ. eigenvalues --   -0.57333  -0.55466  -0.47912  -0.38787  -0.35037
 Alpha  occ. eigenvalues --   -0.34350  -0.31552  -0.29176  -0.28209  -0.25580
 Alpha  occ. eigenvalues --   -0.25104  -0.24597  -0.21993  -0.17836  -0.14622
 Alpha  occ. eigenvalues --   -0.07600  -0.04107   0.06902   0.07208
 Alpha virt. eigenvalues --    0.21455   0.25491   0.26237   0.27160   0.28787
 Alpha virt. eigenvalues --    0.29682   0.30347   0.32319   0.33598   0.34530
 Alpha virt. eigenvalues --    0.35203   0.36515   0.39452   0.42432   0.42852

 Mulliken charges:
               1
     1  O   -0.715447
     2  N   -0.450061
     3  C    0.250578
     4  C    0.153147
     5  C    0.329097
     6  C    0.332591
     7  C    0.323943
     8  H   -0.108479
     9  H   -0.181134
    10  H   -0.133889
    11  H   -0.154244
    12  H   -0.032488
    13  H   -0.106586
    14  H   -0.066316
    15  H   -0.043977
    16  H   -0.066793
    17  H   -0.104463
    18  H   -0.085688
    19  H   -0.139790
 Sum of Mulliken charges =  -1.00000

 Dipole moment (field-independent basis, Debye):
    X=              5.3307    Y=             -1.5849    Z=             -4.4842  Tot=              7.1439
 Quadrupole moment (field-independent basis, Debye-Ang):
   XX=            -59.1200   YY=            -48.5240   ZZ=            -57.0333
   XY=              1.7737   XZ=              5.2278   YZ=             -3.7437

  Exact polarizability:      79.581       0.540      62.453       1.137       0.254      62.909
 Approx polarizability:      88.079      -0.027      83.026      -0.185       4.972      95.586

 Summary of Natural Population Analysis:

                                       Natural Population
                Natural  -----------------------------------------------
    Atom  No    Charge         Core      Valence    Rydberg      Total
 -----------------------------------------------------------------------
      O    1   -0.98130      1.99987     6.97308    0.00835     8.98130
      N    2   -0.49858      1.99945     5.48149    0.01763     7.49858
      C    3   -0.57873      1.99912     4.56751    0.01210     6.57873
      C    4    0.16979      1.99892     3.79178    0.03950     5.83021
      C    5   -0.18548      1.99883     4.16373    0.02293     6.18548
      C    6   -0.32370      1.99914     4.31272    0.01184     6.32370
      C    7   -0.31766      1.99912     4.30803    0.01051     6.31766
      H    8    0.15157      0.00000     0.83258    0.01585     0.84843
      H    9    0.07649      0.00000     0.91070    0.01280     0.92351
      H   10    0.14473      0.00000     0.84078    0.01449     0.85527
      H   11    0.11706      0.00000     0.86910    0.01385     0.88294
      H   12    0.18130      0.00000     0.81532    0.00339     0.81870
      H   13    0.12392      0.00000     0.86709    0.00899     0.87608
      H   14    0.15981      0.00000     0.83739    0.00280     0.84019
      H   15    0.17136      0.00000     0.82415    0.00449     0.82864
      H   16    0.15796      0.00000     0.83906    0.00298     0.84204
      H   17    0.12565      0.00000     0.86523    0.00912     0.87435
      H   18    0.17181      0.00000     0.81968    0.00850     0.82819
      H   19    0.13400      0.00000     0.85418    0.01182     0.86600
 =======================================================================
   * Total *   -1.00000     13.99445    43.77359    0.23195    58.00000

 ******   15 imaginary frequencies (negative Signs) ******

                      1                      2                      3
                      A                      A                      A
 Frequencies --  -1401.7217             -1393.2273             -1379.6437
 Red. masses --      1.0087                 1.0147                 1.0246
 Frc consts  --      1.1677                 1.1605                 1.1491
 IR Inten    --      0.2422                 0.3485                 2.2226

                      4                      5                      6
                      A                      A                      A
 Frequencies --  -1170.8289             -1084.7017             -1054.2573
 Red. masses --      1.0520                 1.0768                 1.0609
 Frc consts  --      0.8496                 0.7465                 0.6947
 IR Inten    --      2.4440                 3.3358                 1.2553

                      7                      8                      9
                      A                      A                      A
 Frequencies --   -977.4115              -936.6268              -920.3019
 Red. masses --      1.1333                 1.0633                 1.0905
 Frc consts  --      0.6379                 0.5496                 0.5442
 IR Inten    --      2.1796                11.4576                 0.8319

                     10                     11                     12
                      A                      A                      A
 Frequencies --   -847.3562              -595.5424              -491.9963
 Red. masses --      1.1199                 1.3090                 1.2634
 Frc consts  --      0.4738                 0.2735                 0.1802
 IR Inten    --     12.6497                 1.3197                30.1534

                     13                     14                     15
                      A                      A                      A
 Frequencies --   -432.6833              -277.1431              -124.6295
 Red. masses --      1.3016                 1.1533                 1.7874
 Frc consts  --      0.1436                 0.0522                 0.0164
 IR Inten    --      9.9980                25.8503                 9.0621

                     16                     17                     18
                      A                      A                      A
 Frequencies --    338.4151               406.1843               460.8075
 Red. masses --      5.9399                 1.3747                 3.8281
 Frc consts  --      0.4008                 0.1336                 0.4789
 IR Inten    --     10.8549                 0.7228                12.6889

                     19                     20                     21
                      A                      A                      A
 Frequencies --    483.3134               530.6573               590.7891
 Red. masses --      1.3411                 3.8188                 5.4415
 Frc consts  --      0.1846                 0.6336                 1.1190
 IR Inten    --      0.4529                 2.8922                 6.6133

                     22                     23                     24
                      A                      A                      A
 Frequencies --    647.8033               735.3939               751.1027
 Red. masses --      2.4826                 3.7597                 3.0389
 Frc consts  --      0.6138                 1.1980                 1.0101
 IR Inten    --     18.6287                12.1972                 5.2070

                     25                     26                     27
                      A                      A                      A
 Frequencies --    793.3810               796.8595               888.0652
 Red. masses --      1.7404                 1.8752                 2.9331
 Frc consts  --      0.6454                 0.7015                 1.3629
 IR Inten    --     15.5045                 7.8229                 1.7696

                     28                     29                     30
                      A                      A                      A
 Frequencies --    915.5820               930.8761               946.6736
 Red. masses --      1.4494                 1.2881                 1.1208
 Frc consts  --      0.7159                 0.6576                 0.5918
 IR Inten    --      7.1140                23.3224                 4.8243

                     31                     32                     33
                      A                      A                      A
 Frequencies --    961.4890               978.3005               984.4410
 Red. masses --      1.0506                 1.0721                 1.1060
 Frc consts  --      0.5722                 0.6045                 0.6315
 IR Inten    --     11.6550                 9.3472                 0.2439

                     34                     35                     36
                      A                      A                      A
 Frequencies --   1058.9297              1135.0153              1161.6431
 Red. masses --      1.4730                 4.4859                 3.4962
 Frc consts  --      0.9731                 3.4049                 2.7797
 IR Inten    --     40.1357                56.9854                13.2346

                     37                     38                     39
                      A                      A                      A
 Frequencies --   1245.4859              1277.7105              1488.1287
 Red. masses --      4.7599                 4.2599                 7.1686
 Frc consts  --      4.3503                 4.0975                 9.3533
 IR Inten    --     21.0685                19.6575                11.7541

                     40                     41                     42
                      A                      A                      A
 Frequencies --   4446.4607              4448.0128              4449.8216
 Red. masses --      1.0302                 1.0319                 1.0309
 Frc consts  --     12.0008                12.0284                12.0274
 IR Inten    --     50.6828                74.7373                69.7569

                     43                     44                     45
                      A                      A                      A
 Frequencies --   4487.4113              4493.8460              4635.5035
 Red. masses --      1.0758                 1.0650                 1.1078
 Frc consts  --     12.7631                12.6719                14.0256
 IR Inten    --    165.8792               140.8200                44.8211

                     46                     47                     48
                      A                      A                      A
 Frequencies --   4638.8488              4643.2879              4643.6292
 Red. masses --      1.1059                 1.1041                 1.1069
 Frc consts  --     14.0210                14.0253                14.0625
 IR Inten    --     80.2648                88.1222                 4.3030

                     49                     50                     51
                      A                      A                      A
 Frequencies --   4665.8950              4670.0723              4678.5742
 Red. masses --      1.1072                 1.1072                 1.1066
 Frc consts  --     14.2021                14.2270                14.2720
 IR Inten    --     17.2415                 7.3396                18.8145

 - Thermochemistry -
 -------------------
 Temperature   298.150 Kelvin.  Pressure   1.00000 Atm.
 Atom     1 has atomic number  8 and mass  15.99491

 Molecular mass:   102.09189 amu.
 Principal axes and moments of inertia in atomic units:
                           1         2         3
     Eigenvalues --   359.757311189.069591225.40165
           X            0.99981   0.01246   0.01508
           Y           -0.00859   0.97222  -0.23389
           Z           -0.01758   0.23372   0.97215
 This molecule is an asymmetric top.
 Rotational symmetry number  1.
 Rotational temperatures (Kelvin)      0.24076     0.07284     0.07068
 Rotational constants (GHZ):           5.01655     1.51778     1.47278
   15 imaginary frequencies ignored.
 Zero-point vibrational energy     451042.5 (Joules/Mol)
                                  107.80174 (Kcal/Mol)
 Warning -- explicit consideration of   6 degrees of freedom as
           vibrations may cause significant error
 Vibrational temperatures:    486.90   584.41   663.00   695.38   763.50
          (Kelvin)            850.01   932.04  1058.07  1080.67  1141.50
                             1146.50  1277.73  1317.32  1339.32  1362.05
                             1383.37  1407.56  1416.39  1523.56  1633.03
                             1671.35  1791.98  1838.34  2141.09  6397.47
                             6399.70  6402.30  6456.38  6465.64  6669.46
                             6674.27  6680.66  6681.15  6713.18  6719.19
                             6731.42

 Zero-point correction=                           0.171793 (Hartree/Particle)
 Thermal correction to Energy=                    0.177075
 Thermal correction to Enthalpy=                  0.178019
 Thermal correction to Gibbs Free Energy=         0.142573
 Sum of electronic and zero-point Energies=           -326.652027
 Sum of electronic and thermal Energies=              -326.646746
 Sum of electronic and thermal Enthalpies=            -326.645801
 Sum of electronic and thermal Free Energies=         -326.681248

                     E (Thermal)             CV                S
                      KCal/Mol        Cal/Mol-Kelvin    Cal/Mol-Kelvin
 Total                  111.116             21.948             74.603
 Electronic               0.000              0.000              0.000
 Translational            0.889              2.981             39.780
 Rotational               0.889              2.981             27.752
 Vibrational            109.339             15.987              7.072
 Vibration     1          0.719              1.599              1.220
 Vibration     2          0.771              1.457              0.940
 Vibration     3          0.819              1.337              0.764
 Vibration     4          0.839              1.287              0.701
 Vibration     5          0.886              1.182              0.586
 Vibration     6          0.948              1.051              0.466

 Normal termination of Gaussian 16 at Mon Mar  6 10:30:12 2023.
