 Gaussian 16, Revision C.01,
 Gaussian 16:  ES64L-G16RevC.01  3-Jul-2019

 ----------------------------------------------------------------------
 #p pop=(regular,nbo,savenbos) freq=noraman def2svp empiricaldispersion
 =gd3bj output=wfx pbe1pbe
 ----------------------------------------------------------------------

 ----------------------------------------
 VISGIQ_Complex_1_Ligand_0_NN_Cu_oriented
 ----------------------------------------
 Symbolic Z-matrix:
 Charge =  0 Multiplicity = 1

                         Standard orientation:
 ---------------------------------------------------------------------
 Center     Atomic      Atomic             Coordinates (Angstroms)
 Number     Number       Type             X           Y           Z
 ---------------------------------------------------------------------
      1          7           0        2.916165    0.035992   -0.115416
      2          7           0        0.210277   -0.388013   -0.623131
      3          1           0       -0.011945   -1.241078   -0.744151
      4          6           0        4.106041   -1.947576   -1.102852
      5          1           0        3.648636   -2.610356   -0.579592
      6          1           0        4.980660   -2.269451   -1.332645
      7          1           0        3.607776   -1.774386   -1.905160
      8          6           0        4.220228   -0.783974   -0.373069
      9          1           0        4.852462   -0.207287   -0.829282
     10          1           0        4.607013   -1.009562    0.487854
     11          6           0        4.426604    1.417836    1.326776
     12          1           0        3.992932    1.765465    2.110028
     13          1           0        5.149009    1.998882    1.077179
     14          1           0        4.769125    0.541462    1.512667
     15          6           0        3.471917    1.343265    0.242654
     16          1           0        3.897758    1.708857   -0.549029
     17          1           0        2.730352    1.927769    0.462318
     18          6           0        2.144661   -0.696049    0.881329
     19          1           0        2.487343   -0.508646    1.769647
     20          1           0        2.216031   -1.650417    0.722045
     21          6           0        0.676209   -0.254839    0.781478
     22          1           0        0.127582   -0.807019    1.361910
     23          1           0        0.589663    0.666630    1.070163
     24          6           0       -0.973221    0.426325   -0.998541
     25          1           0       -1.240491    0.137999   -1.896479
     26          6           0       -0.534437    1.887875   -1.119387
     27          1           0       -0.302278    2.225165   -0.250871
     28          1           0       -1.253084    2.409179   -1.483677
     29          1           0        0.230106    1.946216   -1.699170
     30          6           0       -2.204019    0.218399   -0.075971
     31          1           0       -1.953397    0.519275    0.822652
     32          6           0       -3.887296   -1.410935    0.825201
     33          1           0       -4.151406   -2.343289    0.796060
     34          1           0       -3.705998   -1.186070    1.751450
     35          6           0       -5.018670   -0.582945    0.350609
     36          1           0       -5.776285   -0.686528    0.946966
     37          1           0       -5.287843   -0.870088   -0.536253
     38          6           0       -4.598078    0.836800    0.313526
     39          1           0       -4.411091    1.132710    1.217874
     40          1           0       -5.331279    1.372943   -0.027141
     41          6           0       -3.385194    1.078924   -0.536637
     42          1           0       -3.139399    2.015369   -0.488062
     43          1           0       -3.593238    0.870388   -1.460908
     44          6           0       -2.608368   -1.243117    0.027102
     45          1           0       -2.736416   -1.605152   -0.863786
     46          1           0       -1.895644   -1.744775    0.453910
 ---------------------------------------------------------------------

 SCF Done:  E(RPBE1PBE) =  -659.336658815     A.U. after   12 cycles

 The electronic state is 1-A.
 Alpha  occ. eigenvalues --  -14.35459 -14.33448 -10.22606 -10.21368 -10.21319
 Alpha  occ. eigenvalues --  -10.20152 -10.20133 -10.19947 -10.18768 -10.18482
 Alpha  occ. eigenvalues --  -10.18453 -10.18210 -10.18189 -10.16398 -10.16377
 Alpha  occ. eigenvalues --  -10.16083  -0.93026  -0.90905  -0.86539  -0.81342
 Alpha  occ. eigenvalues --   -0.80284  -0.78208  -0.77557  -0.75006  -0.72568
 Alpha  occ. eigenvalues --   -0.66636  -0.65115  -0.64545  -0.64432  -0.59768
 Alpha  occ. eigenvalues --   -0.59291  -0.58171  -0.52103  -0.51221  -0.50728
 Alpha  occ. eigenvalues --   -0.49945  -0.49577  -0.47755  -0.47576  -0.46907
 Alpha  occ. eigenvalues --   -0.45572  -0.45127  -0.43585  -0.43430  -0.41628
 Alpha  occ. eigenvalues --   -0.41033  -0.39901  -0.39659  -0.39252  -0.38512
 Alpha  occ. eigenvalues --   -0.37629  -0.37164  -0.36882  -0.36424  -0.35985
 Alpha  occ. eigenvalues --   -0.35193  -0.34312  -0.33967  -0.32524  -0.31586
 Alpha  occ. eigenvalues --   -0.31003  -0.29892  -0.21660  -0.19734
 Alpha virt. eigenvalues --    0.07235   0.08320   0.09190   0.10066   0.10124
 Alpha virt. eigenvalues --    0.11266   0.11976   0.12901   0.13531   0.13998
 Alpha virt. eigenvalues --    0.14258   0.15132   0.15615   0.16081   0.16437

 Mulliken charges:
               1
     1  N   -0.459730
     2  N   -0.234381
     3  H    0.044529
     4  C    0.246382
     5  H   -0.044717
     6  H   -0.034220
     7  H   -0.021746
     8  C    0.071539
     9  H   -0.035694
    10  H   -0.040387
    11  C    0.150862
    12  H   -0.027098
    13  H   -0.027009
    14  H   -0.039821
    15  C    0.180805
    16  H   -0.026324
    17  H   -0.051551
    18  C    0.248436
    19  H   -0.055755
    20  H   -0.042946
    21  C    0.222209
    22  H   -0.040133
    23  H   -0.036373
    24  C   -0.012234
    25  H   -0.041698
    26  C    0.245851
    27  H   -0.042369
    28  H   -0.033429
    29  H   -0.016715
    30  C   -0.166109
    31  H   -0.042181
    32  C    0.094835
    33  H   -0.036376
    34  H   -0.042195
    35  C    0.093782
    36  H   -0.033498
    37  H   -0.038360
    38  C    0.102623
    39  H   -0.043969
    40  H   -0.038415
    41  C    0.124829
    42  H   -0.030412
    43  H   -0.039028
    44  C    0.137077
    45  H   -0.040863
    46  H   -0.048024
 Sum of Mulliken charges =  -0.00000

 Dipole moment (field-independent basis, Debye):
    X=             -0.0441    Y=             -0.4550    Z=              1.2570  Tot=              1.3376
 Quadrupole moment (field-independent basis, Debye-Ang):
   XX=            -95.4536   YY=            -99.0222   ZZ=           -102.0999
   XY=             -0.2680   XZ=              1.9175   YZ=              0.1181

  Exact polarizability:     169.134       0.428     134.385      -2.526      -1.242     120.103
 Approx polarizability:     189.091      -1.232     181.253      -1.867      -1.231     173.146

 Summary of Natural Population Analysis:

                                       Natural Population
                Natural  -----------------------------------------------
    Atom  No    Charge         Core      Valence    Rydberg      Total
 -----------------------------------------------------------------------
      N    1   -0.55393      1.99946     5.53868    0.01579     7.55393
      N    2   -0.67164      1.99936     5.65221    0.02007     7.67164
      H    3    0.31945      0.00000     0.67418    0.00637     0.68055
      C    4   -0.55460      1.99920     4.54685    0.00855     6.55460
      H    5    0.17581      0.00000     0.82127    0.00292     0.82419
      H    6    0.19289      0.00000     0.80433    0.00278     0.80711
      H    7    0.19177      0.00000     0.80293    0.00530     0.80823
      C    8   -0.14001      1.99896     4.12485    0.01620     6.14001
      H    9    0.17045      0.00000     0.82500    0.00455     0.82955
      H   10    0.14971      0.00000     0.84407    0.00622     0.85029
      C   11   -0.57665      1.99920     4.57013    0.00733     6.57665
      H   12    0.18363      0.00000     0.81365    0.00273     0.81637
      H   13    0.19035      0.00000     0.80667    0.00298     0.80965
      H   14    0.18577      0.00000     0.81179    0.00244     0.81423
      C   15   -0.14329      1.99907     4.12653    0.01769     6.14329
      H   16    0.17710      0.00000     0.81953    0.00338     0.82290
      H   17    0.17269      0.00000     0.82376    0.00356     0.82731
      C   18   -0.15416      1.99904     4.13786    0.01726     6.15416
      H   19    0.15910      0.00000     0.83593    0.00497     0.84090
      H   20    0.17283      0.00000     0.82297    0.00420     0.82717
      C   21   -0.15603      1.99905     4.14108    0.01590     6.15603
      H   22    0.15881      0.00000     0.83676    0.00443     0.84119
      H   23    0.17037      0.00000     0.82625    0.00338     0.82963
      C   24    0.02923      1.99902     3.95198    0.01977     5.97077
      H   25    0.17443      0.00000     0.82123    0.00434     0.82557
      C   26   -0.55298      1.99916     4.54353    0.01029     6.55298
      H   27    0.17749      0.00000     0.81991    0.00260     0.82251
      H   28    0.18337      0.00000     0.81431    0.00232     0.81663
      H   29    0.20084      0.00000     0.79537    0.00379     0.79916
      C   30   -0.22512      1.99901     4.21072    0.01539     6.22512
      H   31    0.18030      0.00000     0.81439    0.00531     0.81970
      C   32   -0.35780      1.99909     4.34543    0.01329     6.35780
      H   33    0.18746      0.00000     0.80876    0.00378     0.81254
      H   34    0.17713      0.00000     0.81849    0.00437     0.82287
      C   35   -0.35975      1.99911     4.34816    0.01248     6.35975
      H   36    0.18890      0.00000     0.80746    0.00364     0.81110
      H   37    0.17650      0.00000     0.81907    0.00442     0.82350
      C   38   -0.35909      1.99909     4.34662    0.01338     6.35909
      H   39    0.17689      0.00000     0.81874    0.00437     0.82311
      H   40    0.18769      0.00000     0.80847    0.00384     0.81231
      C   41   -0.36794      1.99908     4.35403    0.01483     6.36794
      H   42    0.19128      0.00000     0.80523    0.00349     0.80872
      H   43    0.17870      0.00000     0.81674    0.00457     0.82130
      C   44   -0.37480      1.99907     4.35963    0.01610     6.37480
      H   45    0.17971      0.00000     0.81576    0.00453     0.82029
      H   46    0.18715      0.00000     0.80873    0.00411     0.81285
 =======================================================================
   * Total *    0.00000     31.98598    95.66004    0.35398   128.00000

 ******   38 imaginary frequencies (negative Signs) ******

                      1                      2                      3
                      A                      A                      A
 Frequencies --  -1450.4200             -1417.2716             -1384.0905
 Red. masses --      1.0828                 1.0094                 1.0090
 Frc consts  --      1.3421                 1.1946                 1.1389
 IR Inten    --    134.5153                 0.4382                 0.2295

                      4                      5                      6
                      A                      A                      A
 Frequencies --  -1376.0672             -1113.0216             -1095.8813
 Red. masses --      1.0100                 1.0470                 1.0249
 Frc consts  --      1.1268                 0.7642                 0.7252
 IR Inten    --      0.1429                 5.0250                 2.6327

                      7                      8                      9
                      A                      A                      A
 Frequencies --  -1080.7969             -1069.2658             -1067.0029
 Red. masses --      1.0429                 1.0332                 1.0330
 Frc consts  --      0.7177                 0.6960                 0.6929
 IR Inten    --      1.4158                 6.2442                 0.1427

                     10                     11                     12
                      A                      A                      A
 Frequencies --  -1054.5873             -1048.5820             -1041.3388
 Red. masses --      1.0265                 1.0373                 1.0336
 Frc consts  --      0.6726                 0.6720                 0.6604
 IR Inten    --      4.1192                 3.0540                 2.2105

                     13                     14                     15
                      A                      A                      A
 Frequencies --  -1032.4309             -1009.0977             -1006.3205
 Red. masses --      1.0312                 1.0516                 1.0448
 Frc consts  --      0.6476                 0.6309                 0.6234
 IR Inten    --      3.0048                 4.2998                 9.1997

                     16                     17                     18
                      A                      A                      A
 Frequencies --   -998.1222              -972.6361              -953.1433
 Red. masses --      1.0687                 1.0658                 1.0782
 Frc consts  --      0.6273                 0.5941                 0.5771
 IR Inten    --      4.7931                 5.3527                 0.3893

                     19                     20                     21
                      A                      A                      A
 Frequencies --   -942.9770              -676.0969              -569.5622
 Red. masses --      1.0927                 1.2173                 1.2520
 Frc consts  --      0.5725                 0.3278                 0.2393
 IR Inten    --      3.2864                13.7047                 0.8537

                     22                     23                     24
                      A                      A                      A
 Frequencies --   -548.8547              -531.2928              -511.1062
 Red. masses --      1.3061                 1.2127                 1.5238
 Frc consts  --      0.2318                 0.2017                 0.2345
 IR Inten    --      0.6464                 0.4154                 0.6040

                     25                     26                     27
                      A                      A                      A
 Frequencies --   -500.2606              -491.3767              -447.1774
 Red. masses --      1.3960                 1.3630                 1.5276
 Frc consts  --      0.2058                 0.1939                 0.1800
 IR Inten    --      0.3012                 0.2007                 1.9872

                     28                     29                     30
                      A                      A                      A
 Frequencies --   -434.3031              -406.4068              -400.9968
 Red. masses --      1.5247                 1.2839                 1.6403
 Frc consts  --      0.1694                 0.1249                 0.1554
 IR Inten    --      0.4660                 0.8860                 1.9830

                     31                     32                     33
                      A                      A                      A
 Frequencies --   -366.1458              -344.4773              -334.9156
 Red. masses --      1.7375                 1.7646                 1.4488
 Frc consts  --      0.1372                 0.1234                 0.0957
 IR Inten    --      0.2663                 3.4758                 0.9894

                     34                     35                     36
                      A                      A                      A
 Frequencies --   -307.3695              -262.5342              -256.5423
 Red. masses --      1.9699                 2.0261                 1.6111
 Frc consts  --      0.1097                 0.0823                 0.0625
 IR Inten    --      0.0570                 0.2940                 3.2173

                     37                     38                     39
                      A                      A                      A
 Frequencies --   -213.7848              -108.6101               206.0446
 Red. masses --      2.3888                 2.6258                 3.3943
 Frc consts  --      0.0643                 0.0182                 0.0849
 IR Inten    --      1.8478                 0.5288                 0.5770

                     40                     41                     42
                      A                      A                      A
 Frequencies --    346.4832               385.2243               399.5917
 Red. masses --      1.1768                 1.1895                 2.8831
 Frc consts  --      0.0832                 0.1040                 0.2712
 IR Inten    --      6.5882                15.1296                 1.9875

                     43                     44                     45
                      A                      A                      A
 Frequencies --    425.5965               438.1387               460.0577
 Red. masses --      2.8711                 2.9436                 2.1263
 Frc consts  --      0.3064                 0.3329                 0.2652
 IR Inten    --      6.6319                 1.5503                 2.5908

                     46                     47                     48
                      A                      A                      A
 Frequencies --    536.2023               558.4406               584.8256
 Red. masses --      1.1478                 2.2885                 1.7561
 Frc consts  --      0.1944                 0.4205                 0.3539
 IR Inten    --     25.1239                10.5607                 1.2010

                     49                     50                     51
                      A                      A                      A
 Frequencies --    600.1509               639.9510               652.7104
 Red. masses --      1.3021                 1.5693                 1.9019
 Frc consts  --      0.2763                 0.3787                 0.4774
 IR Inten    --     12.0692                 2.2559                 0.8273

                     52                     53                     54
                      A                      A                      A
 Frequencies --    673.8965               689.2819               691.4131
 Red. masses --      1.7053                 1.3860                 1.2813
 Frc consts  --      0.4563                 0.3880                 0.3609
 IR Inten    --      0.4255                 1.7979                 2.3136

                     55                     56                     57
                      A                      A                      A
 Frequencies --    710.3584               720.5730               738.1560
 Red. masses --      1.9476                 1.9481                 2.2656
 Frc consts  --      0.5790                 0.5960                 0.7273
 IR Inten    --      7.5486                 2.1797                 0.3890

                     58                     59                     60
                      A                      A                      A
 Frequencies --    752.8053               761.9935               788.1158
 Red. masses --      2.3278                 2.3733                 2.3039
 Frc consts  --      0.7772                 0.8119                 0.8431
 IR Inten    --     30.9014                 5.8266                33.1646

                     61                     62                     63
                      A                      A                      A
 Frequencies --    801.2781               815.9475               830.5630
 Red. masses --      2.0722                 2.9026                 2.0788
 Frc consts  --      0.7839                 1.1386                 0.8449
 IR Inten    --      3.3703                 8.9883                11.1359

                     64                     65                     66
                      A                      A                      A
 Frequencies --    856.5835               864.5189               870.1618
 Red. masses --      2.3858                 1.6100                 1.6021
 Frc consts  --      1.0314                 0.7090                 0.7147
 IR Inten    --     10.2275                 4.9691                 2.0925

                     67                     68                     69
                      A                      A                      A
 Frequencies --    885.5725               913.0587               919.1979
 Red. masses --      2.1529                 2.4585                 1.9129
 Frc consts  --      0.9948                 1.2076                 0.9522
 IR Inten    --      5.3203                 1.1993                 6.3268

                     70                     71                     72
                      A                      A                      A
 Frequencies --    924.8884               927.2493               935.0080
 Red. masses --      2.7416                 2.3037                 2.6645
 Frc consts  --      1.3818                 1.1670                 1.3724
 IR Inten    --      4.5709                 4.9633                 0.1994

                     73                     74                     75
                      A                      A                      A
 Frequencies --    974.7188               979.2301               983.7488
 Red. masses --      1.1415                 1.1554                 1.7608
 Frc consts  --      0.6390                 0.6528                 1.0040
 IR Inten    --      2.0053                 0.7620                13.1801

                     76                     77                     78
                      A                      A                      A
 Frequencies --    989.1941               994.4207               998.2369
 Red. masses --      1.1938                 1.3261                 1.3379
 Frc consts  --      0.6882                 0.7726                 0.7855
 IR Inten    --     11.8502                 1.7015                 4.4394

                     79                     80                     81
                      A                      A                      A
 Frequencies --   1010.0345              1016.3322              1023.1381
 Red. masses --      1.2413                 1.2697                 1.2727
 Frc consts  --      0.7461                 0.7727                 0.7850
 IR Inten    --     39.1877                 0.7642                 9.3100

                     82                     83                     84
                      A                      A                      A
 Frequencies --   1042.8515              1050.2585              1057.4795
 Red. masses --      1.2247                 1.1378                 1.1820
 Frc consts  --      0.7847                 0.7395                 0.7788
 IR Inten    --     15.4150                15.7642                12.7821

                     85                     86                     87
                      A                      A                      A
 Frequencies --   1071.6765              1074.6199              1082.1943
 Red. masses --      1.6492                 1.2090                 2.0701
 Frc consts  --      1.1160                 0.8226                 1.4284
 IR Inten    --      5.4452                 7.6476                 1.1188

                     88                     89                     90
                      A                      A                      A
 Frequencies --   1105.0058              1108.4883              1114.0403
 Red. masses --      1.5804                 1.3273                 2.1973
 Frc consts  --      1.1369                 0.9609                 1.6067
 IR Inten    --      8.4349                10.9109                 3.4929

                     91                     92                     93
                      A                      A                      A
 Frequencies --   1137.4339              1146.1679              1161.8696
 Red. masses --      3.3757                 3.0222                 3.3857
 Frc consts  --      2.5731                 2.3392                 2.6929
 IR Inten    --     10.1858                 6.9931                 7.9725

                     94                     95                     96
                      A                      A                      A
 Frequencies --   1169.1282              1180.1066              1196.8231
 Red. masses --      3.5402                 4.7902                 5.2992
 Frc consts  --      2.8510                 3.9305                 4.4722
 IR Inten    --     10.8776                19.5573                 6.1990

                     97                     98                     99
                      A                      A                      A
 Frequencies --   1259.7682              1261.9287              1270.5280
 Red. masses --      4.7361                 5.5652                 5.9197
 Frc consts  --      4.4284                 5.2216                 5.6301
 IR Inten    --     10.1694                12.4432                 0.4335

                    100                    101                    102
                      A                      A                      A
 Frequencies --   1337.7160              1347.2822              1579.4305
 Red. masses --      6.5809                 5.6877                 7.3530
 Frc consts  --      6.9385                 6.0828                10.8073
 IR Inten    --      0.0699                33.2835                13.3395

                    103                    104                    105
                      A                      A                      A
 Frequencies --   4348.2940              4359.3793              4401.3263
 Red. masses --      1.0866                 1.0875                 1.0610
 Frc consts  --     12.1050                12.1766                12.1095
 IR Inten    --      2.9967                25.8924                38.2519

                    106                    107                    108
                      A                      A                      A
 Frequencies --   4407.3323              4410.6187              4411.0107
 Red. masses --      1.0590                 1.0614                 1.0597
 Frc consts  --     12.1201                12.1650                12.1480
 IR Inten    --     17.3137                25.3200                19.2651

                    109                    110                    111
                      A                      A                      A
 Frequencies --   4412.8519              4413.7997              4414.7317
 Red. masses --      1.0599                 1.0608                 1.0606
 Frc consts  --     12.1608                12.1759                12.1793
 IR Inten    --      2.2390                22.7898                39.2810

                    112                    113                    114
                      A                      A                      A
 Frequencies --   4417.9811              4421.9283              4457.2594
 Red. masses --      1.0618                 1.0608                 1.0352
 Frc consts  --     12.2104                12.2210                12.1175
 IR Inten    --     26.4028                 9.9865                12.3905

                    115                    116                    117
                      A                      A                      A
 Frequencies --   4463.8043              4466.5687              4521.0707
 Red. masses --      1.0343                 1.0324                 1.1070
 Frc consts  --     12.1419                12.1348                13.3319
 IR Inten    --     14.2871                 5.8447                12.7942

                    118                    119                    120
                      A                      A                      A
 Frequencies --   4525.5599              4527.6593              4530.4696
 Red. masses --      1.1076                 1.1079                 1.1080
 Frc consts  --     13.3655                13.3812                13.3995
 IR Inten    --     13.3515                 6.1646                13.1079

                    121                    122                    123
                      A                      A                      A
 Frequencies --   4535.2263              4535.6206              4538.7292
 Red. masses --      1.1083                 1.1098                 1.1080
 Frc consts  --     13.4315                13.4519                13.4475
 IR Inten    --      3.7787                 9.7387                22.5830

                    124                    125                    126
                      A                      A                      A
 Frequencies --   4544.4594              4545.7773              4657.4786
 Red. masses --      1.1082                 1.1083                 1.1055
 Frc consts  --     13.4850                13.4935                14.1294
 IR Inten    --     13.7622                11.7987                 7.9901

                    127                    128                    129
                      A                      A                      A
 Frequencies --   4661.6259              4663.5431              4668.7113
 Red. masses --      1.1068                 1.1056                 1.1069
 Frc consts  --     14.1711                14.1670                14.2147
 IR Inten    --      4.0949                 3.1717                 2.0823

                    130                    131                    132
                      A                      A                      A
 Frequencies --   4679.4043              4679.5086              5334.2306
 Red. masses --      1.1053                 1.1063                 1.0753
 Frc consts  --     14.2597                14.2732                18.0272
 IR Inten    --      1.4783                 7.3623                 3.6756

 - Thermochemistry -
 -------------------
 Temperature   298.150 Kelvin.  Pressure   1.00000 Atm.
 Atom     1 has atomic number  7 and mass  14.00307

 Molecular mass:   226.24090 amu.
 Principal axes and moments of inertia in atomic units:
                           1         2         3
     Eigenvalues --  1564.844789029.059069569.44958
           X            1.00000  -0.00070   0.00118
           Y            0.00069   0.99998   0.00642
           Z           -0.00118  -0.00641   0.99998
 This molecule is an asymmetric top.
 Rotational symmetry number  1.
 Warning -- assumption of classical behavior for rotation
           may cause significant error
 Rotational temperatures (Kelvin)      0.05535     0.00959     0.00905
 Rotational constants (GHZ):           1.15330     0.19988     0.18859
   38 imaginary frequencies ignored.
 Zero-point vibrational energy    1154299.8 (Joules/Mol)
                                  275.88427 (Kcal/Mol)
 Warning -- explicit consideration of  11 degrees of freedom as
           vibrations may cause significant error
 Vibrational temperatures:    296.45   498.51   554.25   574.92   612.34
          (Kelvin)            630.38   661.92   771.48   803.47   841.43
                              863.48   920.75   939.10   969.59   991.72
                              994.79  1022.05  1036.74  1062.04  1083.12
                             1096.34  1133.92  1152.86  1173.97  1194.99
                             1232.43  1243.85  1251.97  1274.14  1313.69
                             1322.52  1330.71  1334.10  1345.27  1402.40
                             1408.89  1415.40  1423.23  1430.75  1436.24
                             1453.21  1462.28  1472.07  1500.43  1511.09
                             1521.48  1541.90  1546.14  1557.04  1589.86
                             1594.87  1602.86  1636.51  1649.08  1671.67
                             1682.11  1697.91  1721.96  1812.53  1815.63
                             1828.01  1924.67  1938.44  2272.45  6256.23
                             6272.17  6332.53  6341.17  6345.90  6346.46
                             6349.11  6350.47  6351.81  6356.49  6362.17
                             6413.00  6422.42  6426.40  6504.81  6511.27
                             6514.29  6518.34  6525.18  6525.75  6530.22
                             6538.46  6540.36  6701.07  6707.04  6709.80
                             6717.23  6732.62  6732.77  7674.77

 Zero-point correction=                           0.439650 (Hartree/Particle)
 Thermal correction to Energy=                    0.448235
 Thermal correction to Enthalpy=                  0.449179
 Thermal correction to Gibbs Free Energy=         0.405374
 Sum of electronic and zero-point Energies=           -658.897009
 Sum of electronic and thermal Energies=              -658.888424
 Sum of electronic and thermal Enthalpies=            -658.887480
 Sum of electronic and thermal Free Energies=         -658.931285

                     E (Thermal)             CV                S
                      KCal/Mol        Cal/Mol-Kelvin    Cal/Mol-Kelvin
 Total                  281.272             44.504             92.196
 Electronic               0.000              0.000              0.000
 Translational            0.889              2.981             42.152
 Rotational               0.889              2.981             33.269
 Vibrational            279.494             38.542             16.775
 Vibration     1          0.641              1.831              2.078
 Vibration     2          0.724              1.582              1.182
 Vibration     3          0.754              1.502              1.019
 Vibration     4          0.766              1.471              0.964
 Vibration     5          0.787              1.415              0.873
 Vibration     6          0.798              1.387              0.832
 Vibration     7          0.818              1.339              0.766
 Vibration     8          0.891              1.170              0.574
 Vibration     9          0.914              1.121              0.527
 Vibration    10          0.942              1.064              0.477
 Vibration    11          0.958              1.031              0.449

 1\1\GINC-JST238\Freq\RPBE1PBE\def2SVP\C14H30N2\LAPLAZA\04-Mar-2023\0\\
 #p pop=(regular,nbo,savenbos) freq=noraman def2svp empiricaldispersion
 =gd3bj output=wfx pbe1pbe\\VISGIQ_Complex_1_Ligand_0_NN_Cu_oriented\\0
 ,1\N,-0.09856616,-2.06387024,0.\N,-2.00854773,-0.0362227,0.\H,-2.27266
 983,0.2202252,-0.81007608\C,1.04501433,-1.91249979,-2.23487947\H,0.252
 84545,-2.04072097,-2.76244529\H,1.80765646,-2.23644337,-2.71944671\H,1
 .15733125,-0.97708891,-2.04953757\C,0.92461835,-2.60434872,-1.04894527
 \H,1.79871222,-2.63105113,-0.62982067\H,0.68027881,-3.5190708,-1.26169

 Normal termination of Gaussian 16 at Sat Mar  4 13:05:42 2023.
