 Gaussian 16, Revision C.01,
 Gaussian 16:  ES64L-G16RevC.01  3-Jul-2019

 ----------------------------------------------------------------------
 #p pop=(regular,nbo,savenbos) freq=noraman def2svp empiricaldispersion
 =gd3bj output=wfx pbe1pbe
 ----------------------------------------------------------------------

 -----------------------------------------
 VIYGEP_Complex_20_Ligand_1_ON_Cu_oriented
 -----------------------------------------
 Symbolic Z-matrix:
 Charge = -2 Multiplicity = 1

                         Standard orientation:
 ---------------------------------------------------------------------
 Center     Atomic      Atomic             Coordinates (Angstroms)
 Number     Number       Type             X           Y           Z
 ---------------------------------------------------------------------
      1         16           0        0.048136    1.356359   -0.044025
      2          8           0        0.474960    2.393617   -0.950611
      3          6           0        1.318466    0.103314   -0.082530
      4          6           0        0.992392   -1.233675   -0.000186
      5          6           0        2.005610   -2.178172    0.112883
      6          6           0        3.319942   -1.788047    0.169398
      7          6           0        3.630978   -0.476426    0.028648
      8          6           0        2.629517    0.499488   -0.084839
      9          1           0        4.042808   -2.529955    0.287719
     10          1           0        4.479233   -0.176778   -0.019005
     11          1           0        2.788868    1.401226   -0.287750
     12          8           0       -2.786213   -1.351789   -1.194451
     13          8           0       -4.015442   -1.303252    0.644958
     14          7           0       -1.292422    0.696556   -0.551935
     15          6           0       -3.105002   -0.864493   -0.041140
     16          6           0       -2.266173    0.297191    0.465506
     17          1           0       -2.962608    1.099796    0.821899
     18          1           0       -1.914145    0.152989    1.354887
     19          8           0       -0.059820    1.754234    1.349488
     20          1           0        0.015416   -1.496734    0.013726
     21          1           0        1.764942   -3.125740    0.194953
 ---------------------------------------------------------------------

 SCF Done:  E(RPBE1PBE) =  -1061.20655080     A.U. after   18 cycles

 The electronic state is 1-A.
 Alpha  occ. eigenvalues --  -88.89681 -18.87796 -18.87184 -18.79671 -18.77794
 Alpha  occ. eigenvalues --  -14.01007 -10.02103 -10.00972 -10.00819  -9.99900
 Alpha  occ. eigenvalues --   -9.99806  -9.99683  -9.95631  -9.91426  -7.86442
 Alpha  occ. eigenvalues --   -5.80697  -5.80582  -5.80420  -0.82353  -0.69980
 Alpha  occ. eigenvalues --   -0.68985  -0.66878  -0.58104  -0.56675  -0.56038
 Alpha  occ. eigenvalues --   -0.54842  -0.42812  -0.42748  -0.39577  -0.35525
 Alpha  occ. eigenvalues --   -0.29881  -0.26407  -0.25199  -0.23314  -0.21580
 Alpha  occ. eigenvalues --   -0.19494  -0.18405  -0.17025  -0.16202  -0.15476
 Alpha  occ. eigenvalues --   -0.14322  -0.11516  -0.09501  -0.06800  -0.06190
 Alpha  occ. eigenvalues --   -0.05136  -0.04355  -0.03283  -0.02029  -0.01445
 Alpha  occ. eigenvalues --    0.00297   0.06762   0.08441   0.09700   0.10696
 Alpha  occ. eigenvalues --    0.12628
 Alpha virt. eigenvalues --    0.21097   0.21598   0.27665   0.31745   0.34102
 Alpha virt. eigenvalues --    0.37121   0.38206   0.38571   0.40953   0.42604
 Alpha virt. eigenvalues --    0.43962   0.45824   0.47756   0.49660   0.50479

 Mulliken charges:
               1
     1  S    0.838893
     2  O   -0.572610
     3  C   -0.089538
     4  C    0.068184
     5  C    0.020620
     6  C    0.019168
     7  C    0.096565
     8  C    0.105283
     9  H   -0.070691
    10  H   -0.165538
    11  H   -0.128947
    12  O   -0.503248
    13  O   -0.453445
    14  N   -0.549539
    15  C    0.056660
    16  C    0.188320
    17  H   -0.084172
    18  H   -0.095700
    19  O   -0.576415
    20  H   -0.019079
    21  H   -0.084772
 Sum of Mulliken charges =  -2.00000

 Dipole moment (field-independent basis, Debye):
    X=             15.0299    Y=             -0.6702    Z=              2.0803  Tot=             15.1879
 Quadrupole moment (field-independent basis, Debye-Ang):
   XX=           -160.1201   YY=           -117.2500   ZZ=           -106.7343
   XY=            -20.4465   XZ=             -2.9673   YZ=             -2.2995

  Exact polarizability:     156.725     -10.793     118.785      -6.025      -0.230      74.362
 Approx polarizability:     213.997      -5.669     187.742      -8.400       0.414     129.430

 Summary of Natural Population Analysis:

                                       Natural Population
                Natural  -----------------------------------------------
    Atom  No    Charge         Core      Valence    Rydberg      Total
 -----------------------------------------------------------------------
      S    1    2.28596      9.99801     3.47614    0.23989    13.71404
      O    2   -1.02860      1.99977     7.02003    0.00881     9.02860
      C    3   -0.25754      1.99882     4.22316    0.03557     6.25754
      C    4   -0.16976      1.99893     4.15217    0.01866     6.16976
      C    5   -0.21200      1.99905     4.19750    0.01545     6.21200
      C    6   -0.25763      1.99905     4.24367    0.01491     6.25763
      C    7   -0.19880      1.99901     4.18405    0.01574     6.19880
      C    8   -0.17349      1.99896     4.15594    0.01858     6.17349
      H    9    0.18306      0.00000     0.81347    0.00348     0.81694
      H   10    0.14115      0.00000     0.85527    0.00358     0.85885
      H   11    0.17898      0.00000     0.81385    0.00717     0.82102
      O   12   -0.82642      1.99978     6.81868    0.00795     8.82642
      O   13   -0.81983      1.99973     6.80977    0.01032     8.81983
      N   14   -1.02781      1.99941     6.01196    0.01644     8.02781
      C   15    0.78605      1.99945     3.14218    0.07233     5.21395
      C   16   -0.31731      1.99895     4.29602    0.02234     6.31731
      H   17    0.16060      0.00000     0.83106    0.00834     0.83940
      H   18    0.16295      0.00000     0.82860    0.00845     0.83705
      O   19   -1.02874      1.99977     7.02084    0.00813     9.02874
      H   20    0.24143      0.00000     0.74914    0.00943     0.75857
      H   21    0.17776      0.00000     0.81906    0.00318     0.82224
 =======================================================================
   * Total *   -2.00000     35.98867    75.46256    0.54876   112.00000

 ******   10 imaginary frequencies (negative Signs) ******

                      1                      2                      3
                      A                      A                      A
 Frequencies --  -1654.0822             -1248.4762             -1240.6974
 Red. masses --      1.0658                 1.0504                 1.0667
 Frc consts  --      1.7181                 0.9646                 0.9675
 IR Inten    --     23.3885                 9.0207                 2.4861

                      4                      5                      6
                      A                      A                      A
 Frequencies --   -940.0221              -831.3536              -770.7678
 Red. masses --      1.0519                 1.0545                 1.0941
 Frc consts  --      0.5477                 0.4294                 0.3830
 IR Inten    --      1.8245                20.0598                18.0950

                      7                      8                      9
                      A                      A                      A
 Frequencies --   -600.0229              -323.5533              -125.9289
 Red. masses --      1.2243                 1.2734                14.4315
 Frc consts  --      0.2597                 0.0785                 0.1348
 IR Inten    --      6.2377                 6.8904                 0.2111

                     10                     11                     12
                      A                      A                      A
 Frequencies --    -56.6170                86.8438               101.0861
 Red. masses --      8.1686                 7.3012                 7.0915
 Frc consts  --      0.0154                 0.0324                 0.0427
 IR Inten    --     11.5826                 5.4825                 4.9296

                     13                     14                     15
                      A                      A                      A
 Frequencies --    172.6136               198.1117               257.7382
 Red. masses --      4.8963                 6.1064                 2.8662
 Frc consts  --      0.0860                 0.1412                 0.1122
 IR Inten    --      0.7745                 0.9586                 4.1893

                     16                     17                     18
                      A                      A                      A
 Frequencies --    279.5634               281.8341               315.8371
 Red. masses --     10.0545                 5.2982                 5.8319
 Frc consts  --      0.4630                 0.2480                 0.3428
 IR Inten    --      0.4975                 0.7779                 9.0384

                     19                     20                     21
                      A                      A                      A
 Frequencies --    372.5717               446.0693               463.9051
 Red. masses --      8.8595                 3.1221                 2.7954
 Frc consts  --      0.7246                 0.3660                 0.3545
 IR Inten    --      4.5679                 3.1558                13.8886

                     22                     23                     24
                      A                      A                      A
 Frequencies --    497.1091               546.8750               592.7516
 Red. masses --      3.5915                 6.6502                 5.3130
 Frc consts  --      0.5229                 1.1718                 1.0999
 IR Inten    --      9.7977                40.3560                19.4811

                     25                     26                     27
                      A                      A                      A
 Frequencies --    605.7093               634.1552               664.0230
 Red. masses --      6.8257                 5.0427                 4.1850
 Frc consts  --      1.4755                 1.1948                 1.0872
 IR Inten    --    115.2273                 9.1076                59.8208

                     28                     29                     30
                      A                      A                      A
 Frequencies --    672.5968               748.1841               781.3391
 Red. masses --      3.0596                 7.2476                10.2914
 Frc consts  --      0.8155                 2.3904                 3.7017
 IR Inten    --      5.2696                30.4149                 1.0680

                     31                     32                     33
                      A                      A                      A
 Frequencies --    855.8725               864.9686               910.1538
 Red. masses --      3.7533                 3.4867                 6.4300
 Frc consts  --      1.6199                 1.5370                 3.1383
 IR Inten    --     21.8067                22.8936                66.8647

                     34                     35                     36
                      A                      A                      A
 Frequencies --    938.5637               969.1786              1042.7824
 Red. masses --      1.3800                 5.0711                 5.0307
 Frc consts  --      0.7162                 2.8064                 3.2231
 IR Inten    --     21.7714                21.5966                 4.4189

                     37                     38                     39
                      A                      A                      A
 Frequencies --   1058.7156              1138.4291              1168.9664
 Red. masses --      1.4008                 7.0141                 8.1020
 Frc consts  --      0.9251                 5.3559                 6.5230
 IR Inten    --      0.1340                16.8765               177.2089

                     40                     41                     42
                      A                      A                      A
 Frequencies --   1204.1380              1257.5883              1351.3800
 Red. masses --      1.7942                 5.1776                 1.1728
 Frc consts  --      1.5328                 4.8245                 1.2619
 IR Inten    --    164.3488               171.6502                20.3048

                     43                     44                     45
                      A                      A                      A
 Frequencies --   1369.1632              1401.4830              1408.6005
 Red. masses --      4.9364                 8.9946                12.6235
 Frc consts  --      5.4522                10.4090                14.7572
 IR Inten    --      1.9246               154.2880               344.1152

                     46                     47                     48
                      A                      A                      A
 Frequencies --   1455.2614              1526.6165              1641.5207
 Red. masses --      6.9152                 8.1156                10.0815
 Frc consts  --      8.6285                11.1437                16.0055
 IR Inten    --      0.8677                 9.8385                11.4057

                     49                     50                     51
                      A                      A                      A
 Frequencies --   1759.9269              1838.8097              2857.0308
 Red. masses --      9.3586                12.6274                 1.0743
 Frc consts  --     17.0786                25.1558                 5.1667
 IR Inten    --      3.5228               527.4836               317.5106

                     52                     53                     54
                      A                      A                      A
 Frequencies --   3680.4681              4031.2643              4375.3264
 Red. masses --      1.0909                 1.0919                 1.0900
 Frc consts  --      8.7062                10.4549                12.2946
 IR Inten    --     39.4616                24.7765                12.6908

                     55                     56                     57
                      A                      A                      A
 Frequencies --   4505.0518              4930.1195              5433.4893
 Red. masses --      1.0849                 1.0891                 1.0887
 Frc consts  --     12.9728                15.5971                18.9370
 IR Inten    --     27.1463                 2.5485                11.6237

 - Thermochemistry -
 -------------------
 Temperature   298.150 Kelvin.  Pressure   1.00000 Atm.
 Atom     1 has atomic number 16 and mass  31.97207

 Molecular mass:   213.00958 amu.
 Principal axes and moments of inertia in atomic units:
                           1         2         3
     Eigenvalues --  1774.843564230.206575409.60124
           X            0.99971  -0.02357  -0.00418
           Y            0.02357   0.99972  -0.00188
           Z            0.00423   0.00178   0.99999
 This molecule is an asymmetric top.
 Rotational symmetry number  1.
 Warning -- assumption of classical behavior for rotation
           may cause significant error
 Rotational temperatures (Kelvin)      0.04880     0.02048     0.01601
 Rotational constants (GHZ):           1.01685     0.42663     0.33362
   10 imaginary frequencies ignored.
 Zero-point vibrational energy     380973.4 (Joules/Mol)
                                   91.05484 (Kcal/Mol)
 Warning -- explicit consideration of  15 degrees of freedom as
           vibrations may cause significant error
 Vibrational temperatures:    124.95   145.44   248.35   285.04   370.83
          (Kelvin)            402.23   405.50   454.42   536.05   641.79
                              667.46   715.23   786.83   852.84   871.48
                              912.41   955.38   967.72  1076.47  1124.17
                             1231.41  1244.50  1309.51  1350.38  1394.43
                             1500.33  1523.26  1637.95  1681.88  1732.49
                             1809.39  1944.33  1969.92  2016.42  2026.66
                             2093.80  2196.46  2361.78  2532.14  2645.64
                             4110.63  5295.37  5800.09  6295.12  6481.76
                             7093.34  7817.58

 Zero-point correction=                           0.145105 (Hartree/Particle)
 Thermal correction to Energy=                    0.154977
 Thermal correction to Enthalpy=                  0.155921
 Thermal correction to Gibbs Free Energy=         0.108752
 Sum of electronic and zero-point Energies=          -1061.061446
 Sum of electronic and thermal Energies=             -1061.051574
 Sum of electronic and thermal Enthalpies=           -1061.050629
 Sum of electronic and thermal Free Energies=        -1061.097798

                     E (Thermal)             CV                S
                      KCal/Mol        Cal/Mol-Kelvin    Cal/Mol-Kelvin
 Total                   97.250             37.922             99.275
 Electronic               0.000              0.000              0.000
 Translational            0.889              2.981             41.972
 Rotational               0.889              2.981             32.074
 Vibrational             95.472             31.960             25.229
 Vibration     1          0.601              1.958              3.730
 Vibration     2          0.604              1.948              3.433
 Vibration     3          0.626              1.876              2.407
 Vibration     4          0.637              1.843              2.151
 Vibration     5          0.667              1.750              1.677
 Vibration     6          0.680              1.711              1.536
 Vibration     7          0.681              1.707              1.523
 Vibration     8          0.703              1.643              1.332
 Vibration     9          0.744              1.528              1.069
 Vibration    10          0.805              1.370              0.808
 Vibration    11          0.821              1.330              0.755
 Vibration    12          0.853              1.256              0.665
 Vibration    13          0.902              1.147              0.551
 Vibration    14          0.950              1.047              0.462
 Vibration    15          0.964              1.020              0.440

 Normal termination of Gaussian 16 at Mon Mar  6 10:39:58 2023.
