 Gaussian 16, Revision C.01,
 Gaussian 16:  ES64L-G16RevC.01  3-Jul-2019

 ----------------------------------------------------------------------
 #p pop=(regular,nbo,savenbos) freq=noraman def2svp empiricaldispersion
 =gd3bj output=wfx pbe1pbe
 ----------------------------------------------------------------------

 ----------------------------------------
 VOLQOC_Complex_2_Ligand_0_NN_Cu_oriented
 ----------------------------------------
 Symbolic Z-matrix:
 Charge =  0 Multiplicity = 1

                         Standard orientation:
 ---------------------------------------------------------------------
 Center     Atomic      Atomic             Coordinates (Angstroms)
 Number     Number       Type             X           Y           Z
 ---------------------------------------------------------------------
      1          8           0       -1.324219   -0.240866    1.779812
      2          7           0       -2.203545    1.400597    0.356114
      3          7           0       -3.365964   -0.792815   -0.207412
      4          6           0       -1.315989    0.249621    0.422249
      5          6           0        0.078686    0.553671   -0.045583
      6          6           0        1.101787   -0.352027    0.178331
      7          6           0       -2.033826   -0.865435   -0.313352
      8          6           0       -4.130457   -1.733599   -0.789665
      9          6           0       -3.547119   -2.772533   -1.525548
     10          6           0       -1.421424   -1.877682   -1.034645
     11          6           0       -0.798690    0.667144    2.776590
     12          6           0       -1.203469    0.115527    4.078774
     13          1           0        0.873899   -1.238219    0.610126
     14          1           0       -5.054727   -1.694248   -0.701253
     15          1           0       -0.494562   -1.918719   -1.100105
     16          1           0        0.168107    0.719751    2.714047
     17          1           0       -1.166710    1.556542    2.654592
     18          1           0       -0.886013   -0.788024    4.156016
     19          1           0       -0.826078    0.647376    4.783497
     20          1           0       -2.160414    0.125009    4.147528
     21          6           0       -2.205346   -2.819441   -1.651175
     22          1           0       -1.810376   -3.493081   -2.156458
     23         35           0        3.770287   -1.296991    0.071625
     24          6           0        2.370054   -0.098099   -0.300530
     25          6           0        2.614368    1.056481   -1.014706
     26          1           0        3.470462    1.197486   -1.280613
     27          7           0       -0.646206    2.713336   -0.808835
     28          6           0       -1.833322    2.469274   -0.235496
     29          6           0        1.620452    1.976358   -1.206349
     30          6           0        0.362846    1.749206   -0.691595
     31          6           0       -0.387690    3.967644   -1.497524
     32          1           0       -2.293479    3.192824   -0.287245
     33          1           0        1.769492    2.740074   -1.691124
     34          1           0        0.388661    4.387276   -1.118530
     35          1           0       -0.234637    3.795851   -2.429648
     36          1           0       -1.145026    4.549456   -1.399629
     37          1           0       -4.080074   -3.422236   -1.924319
 ---------------------------------------------------------------------

 SCF Done:  E(RPBE1PBE) =  -3430.42076084     A.U. after   16 cycles

 The electronic state is 1-A.
 Alpha  occ. eigenvalues -- -483.19439 -62.62819 -56.41807 -56.41461 -56.41453
 Alpha  occ. eigenvalues --  -19.19383 -14.44386 -14.36966 -14.35803 -10.31281
 Alpha  occ. eigenvalues --  -10.28974 -10.28787 -10.28140 -10.26098 -10.25706
 Alpha  occ. eigenvalues --  -10.25091 -10.24542 -10.24494 -10.23785 -10.23637
 Alpha  occ. eigenvalues --  -10.23104 -10.22356 -10.21875 -10.21549 -10.16587
 Alpha  occ. eigenvalues --   -8.77443  -6.58915  -6.57643  -6.57621  -2.67477
 Alpha  occ. eigenvalues --   -2.67104  -2.67088  -2.66066  -2.66066  -1.04459
 Alpha  occ. eigenvalues --   -1.02271  -0.95233  -0.91451  -0.90750  -0.84293
 Alpha  occ. eigenvalues --   -0.82723  -0.81548  -0.79837  -0.78091  -0.77873
 Alpha  occ. eigenvalues --   -0.76358  -0.70513  -0.68464  -0.66993  -0.66086
 Alpha  occ. eigenvalues --   -0.63989  -0.63058  -0.59785  -0.56829  -0.55614
 Alpha  occ. eigenvalues --   -0.54987  -0.52484  -0.51759  -0.51645  -0.51072
 Alpha  occ. eigenvalues --   -0.49778  -0.49406  -0.48478  -0.47745  -0.47065
 Alpha  occ. eigenvalues --   -0.46272  -0.44995  -0.43010  -0.42327  -0.41387
 Alpha  occ. eigenvalues --   -0.41109  -0.40693  -0.39740  -0.39387  -0.38867
 Alpha  occ. eigenvalues --   -0.37986  -0.37010  -0.33526  -0.32129  -0.30300
 Alpha  occ. eigenvalues --   -0.29707  -0.28835  -0.28053  -0.27404  -0.26718
 Alpha  occ. eigenvalues --   -0.26326  -0.23284  -0.22305
 Alpha virt. eigenvalues --   -0.02945  -0.02136  -0.01003  -0.00350   0.02477
 Alpha virt. eigenvalues --    0.04652   0.07483   0.10515   0.10878   0.11239
 Alpha virt. eigenvalues --    0.12817   0.13221   0.13537   0.13820   0.15002

 Mulliken charges:
               1
     1  O   -0.430797
     2  N   -0.216650
     3  N   -0.145671
     4  C    0.290881
     5  C   -0.152556
     6  C    0.030223
     7  C   -0.010199
     8  C    0.203514
     9  C    0.037835
    10  C    0.103732
    11  C    0.279382
    12  C    0.135064
    13  H   -0.023229
    14  H   -0.077172
    15  H   -0.114372
    16  H   -0.035509
    17  H   -0.039799
    18  H   -0.015605
    19  H   -0.029323
    20  H   -0.007600
    21  C    0.168306
    22  H   -0.096131
    23  Br  -0.027190
    24  C   -0.058720
    25  C    0.193143
    26  H   -0.131894
    27  N   -0.391978
    28  C    0.365888
    29  C    0.031830
    30  C    0.248961
    31  C    0.326028
    32  H   -0.164189
    33  H   -0.147331
    34  H   -0.003464
    35  H   -0.003078
    36  H   -0.002625
    37  H   -0.089702
 Sum of Mulliken charges =  -0.00000

 Dipole moment (field-independent basis, Debye):
    X=              1.4945    Y=              3.2628    Z=             -2.8933  Tot=              4.6098
 Quadrupole moment (field-independent basis, Debye-Ang):
   XX=           -140.5405   YY=           -109.2858   ZZ=           -128.0279
   XY=              5.1235   XZ=              5.2865   YZ=             -2.3774

  Exact polarizability:     227.602      -2.351     197.921      -4.112      -4.872     145.696
 Approx polarizability:     341.618     -16.599     303.282     -18.397     -13.071     215.276

 Summary of Natural Population Analysis:

                                       Natural Population
                Natural  -----------------------------------------------
    Atom  No    Charge         Core      Valence    Rydberg      Total
 -----------------------------------------------------------------------
      O    1   -0.61932      1.99972     6.60725    0.01236     8.61932
      N    2   -0.53538      1.99937     5.51567    0.02034     7.53538
      N    3   -0.45559      1.99926     5.43912    0.01720     7.45559
      C    4    0.43464      1.99875     3.53119    0.03542     5.56536
      C    5   -0.09926      1.99883     4.08137    0.01906     6.09926
      C    6   -0.19670      1.99881     4.17825    0.01964     6.19670
      C    7    0.22861      1.99894     3.74195    0.03049     5.77139
      C    8    0.12456      1.99913     3.85590    0.02041     5.87544
      C    9   -0.20979      1.99910     4.19755    0.01314     6.20979
      C   10   -0.20157      1.99897     4.18826    0.01434     6.20157
      C   11    0.02138      1.99894     3.96472    0.01497     5.97862
      C   12   -0.54926      1.99916     4.54290    0.00719     6.54926
      H   13    0.23380      0.00000     0.76161    0.00458     0.76620
      H   14    0.14798      0.00000     0.84914    0.00288     0.85202
      H   15    0.17899      0.00000     0.81747    0.00355     0.82101
      H   16    0.14546      0.00000     0.84960    0.00494     0.85454
      H   17    0.15425      0.00000     0.84019    0.00556     0.84575
      H   18    0.18648      0.00000     0.80964    0.00388     0.81352
      H   19    0.18448      0.00000     0.81307    0.00245     0.81552
      H   20    0.18929      0.00000     0.80684    0.00387     0.81071
      C   21   -0.13532      1.99909     4.12196    0.01427     6.13532
      H   22    0.17222      0.00000     0.82473    0.00305     0.82778
     Br   23    0.06185     27.99915     6.91946    0.01955    34.93815
      C   24   -0.12451      1.99870     4.10238    0.02344     6.12451
      C   25   -0.15080      1.99889     4.13520    0.01672     6.15080
      H   26    0.17603      0.00000     0.82059    0.00338     0.82397
      N   27   -0.45610      1.99910     5.44734    0.00967     7.45610
      C   28    0.40041      1.99900     3.57485    0.02575     5.59959
      C   29   -0.19897      1.99899     4.18610    0.01388     6.19897
      C   30    0.19252      1.99883     3.78866    0.01999     5.80748
      C   31   -0.30124      1.99913     4.29118    0.01092     6.30124
      H   32    0.09987      0.00000     0.89642    0.00371     0.90013
      H   33    0.17694      0.00000     0.82019    0.00287     0.82306
      H   34    0.18146      0.00000     0.81550    0.00304     0.81854
      H   35    0.18181      0.00000     0.81523    0.00296     0.81819
      H   36    0.19003      0.00000     0.80761    0.00236     0.80997
      H   37    0.17075      0.00000     0.82596    0.00329     0.82925
 =======================================================================
   * Total *   -0.00000     67.97984   107.58504    0.43512   176.00000

 ******   24 imaginary frequencies (negative Signs) ******

                      1                      2                      3
                      A                      A                      A
 Frequencies --  -2092.4974             -1598.5511             -1561.2416
 Red. masses --      1.0599                 1.0641                 1.0803
 Frc consts  --      2.7344                 1.6020                 1.5514
 IR Inten    --      5.1339                26.2045                 7.1381

                      4                      5                      6
                      A                      A                      A
 Frequencies --  -1450.6929             -1424.2576             -1391.3925
 Red. masses --      1.0816                 1.0429                 1.0097
 Frc consts  --      1.3411                 1.2465                 1.1517
 IR Inten    --     43.2173                 4.3038                 0.3420

                      7                      8                      9
                      A                      A                      A
 Frequencies --  -1383.1569             -1333.1466             -1295.3583
 Red. masses --      1.0093                 1.0396                 1.0247
 Frc consts  --      1.1377                 1.0886                 1.0130
 IR Inten    --      0.0558                 0.2303                 0.1477

                     10                     11                     12
                      A                      A                      A
 Frequencies --  -1178.2095             -1139.8495             -1046.9551
 Red. masses --      1.0319                 1.0725                 1.0415
 Frc consts  --      0.8440                 0.8210                 0.6726
 IR Inten    --      0.2756                11.0911                 4.4800

                     13                     14                     15
                      A                      A                      A
 Frequencies --  -1015.1720              -971.6172              -957.0831
 Red. masses --      1.0577                 1.0720                 1.0703
 Frc consts  --      0.6422                 0.5962                 0.5776
 IR Inten    --      5.2236                 0.4198                 4.5294

                     16                     17                     18
                      A                      A                      A
 Frequencies --   -927.5115              -883.0404              -870.0077
 Red. masses --      1.0914                 1.1058                 1.0473
 Frc consts  --      0.5532                 0.5080                 0.4671
 IR Inten    --      0.6110                 2.7394                 4.4031

                     19                     20                     21
                      A                      A                      A
 Frequencies --   -867.7457              -749.8792              -721.9614
 Red. masses --      1.1421                 1.1011                 1.0686
 Frc consts  --      0.5067                 0.3648                 0.3282
 IR Inten    --      3.6924                11.1060                16.2557

                     22                     23                     24
                      A                      A                      A
 Frequencies --   -460.2784              -364.0679              -264.8260
 Red. masses --      1.8621                 1.1363                 1.9464
 Frc consts  --      0.2324                 0.0887                 0.0804
 IR Inten    --      0.6538                 8.1247                 3.6312

                     25                     26                     27
                      A                      A                      A
 Frequencies --     62.7909               105.9366               120.9447
 Red. masses --      7.2639                 9.5063                10.9647
 Frc consts  --      0.0169                 0.0629                 0.0945
 IR Inten    --      2.2957                 0.5963                 0.1029

                     28                     29                     30
                      A                      A                      A
 Frequencies --    144.9337               169.5108               205.5961
 Red. masses --      6.3739                 8.9925                 6.1839
 Frc consts  --      0.0789                 0.1522                 0.1540
 IR Inten    --      0.3436                 0.5208                 0.1127

                     31                     32                     33
                      A                      A                      A
 Frequencies --    261.3293               293.6577               299.7885
 Red. masses --      8.5994                 8.5382                 7.9526
 Frc consts  --      0.3460                 0.4338                 0.4211
 IR Inten    --      3.2883                 0.7091                 2.4813

                     34                     35                     36
                      A                      A                      A
 Frequencies --    310.5383               333.0010               344.8879
 Red. masses --      6.6809                 8.2264                 5.3061
 Frc consts  --      0.3796                 0.5375                 0.3719
 IR Inten    --      0.4775                 1.9078                 1.3607

                     37                     38                     39
                      A                      A                      A
 Frequencies --    380.5060               487.0546               495.2009
 Red. masses --      7.3388                 1.2008                 5.2891
 Frc consts  --      0.6260                 0.1678                 0.7642
 IR Inten    --      2.4152                16.8048                 1.3208

                     40                     41                     42
                      A                      A                      A
 Frequencies --    509.3897               527.0742               545.0278
 Red. masses --     10.4789                 7.8718                 6.2318
 Frc consts  --      1.6020                 1.2885                 1.0907
 IR Inten    --      1.4176                 1.8721                 2.1876

                     43                     44                     45
                      A                      A                      A
 Frequencies --    570.9580               573.2658               592.2089
 Red. masses --      6.0768                 6.6983                 5.7959
 Frc consts  --      1.1672                 1.2970                 1.1976
 IR Inten    --      3.3900                 1.1246                11.3098

                     46                     47                     48
                      A                      A                      A
 Frequencies --    601.7871               628.4840               650.2717
 Red. masses --      9.0636                 6.7215                 1.7421
 Frc consts  --      1.9339                 1.5643                 0.4340
 IR Inten    --      1.2662                 2.2997                 9.3371

                     49                     50                     51
                      A                      A                      A
 Frequencies --    681.9384               684.3396               699.9758
 Red. masses --      6.6560                 3.2708                 3.8272
 Frc consts  --      1.8237                 0.9025                 1.1048
 IR Inten    --      0.6286                 9.6549                13.8541

                     52                     53                     54
                      A                      A                      A
 Frequencies --    735.3249               739.7650               742.8556
 Red. masses --      3.2223                 3.9028                 3.8995
 Frc consts  --      1.0265                 1.2584                 1.2678
 IR Inten    --     36.4110                11.3211                 1.4091

                     55                     56                     57
                      A                      A                      A
 Frequencies --    754.0544               784.5391               798.5420
 Red. masses --      4.3421                 4.3293                 2.2084
 Frc consts  --      1.4546                 1.5700                 0.8297
 IR Inten    --      4.6050                 4.7190                 5.2933

                     58                     59                     60
                      A                      A                      A
 Frequencies --    822.0359               827.3585               843.0382
 Red. masses --      7.4422                 4.8590                 7.2340
 Frc consts  --      2.9630                 1.9597                 3.0292
 IR Inten    --      0.4106                 7.2061                 5.7629

                     61                     62                     63
                      A                      A                      A
 Frequencies --    878.2647               957.5291               966.5644
 Red. masses --      4.0694                 2.7068                 1.7872
 Frc consts  --      1.8494                 1.4622                 0.9838
 IR Inten    --     19.2942                10.2222                24.9921

                     64                     65                     66
                      A                      A                      A
 Frequencies --   1032.2898              1034.0436              1036.8434
 Red. masses --      1.3811                 2.0168                 4.2135
 Frc consts  --      0.8671                 1.2705                 2.6688
 IR Inten    --     41.5162               158.0118                44.5423

                     67                     68                     69
                      A                      A                      A
 Frequencies --   1045.8964              1049.5281              1057.1438
 Red. masses --      2.2916                 1.4486                 1.4353
 Frc consts  --      1.4770                 0.9401                 0.9450
 IR Inten    --      5.0063                14.7972                36.7403

                     70                     71                     72
                      A                      A                      A
 Frequencies --   1059.6019              1096.8827              1135.2693
 Red. masses --      1.2659                 3.7628                 2.0189
 Frc consts  --      0.8374                 2.6674                 1.5331
 IR Inten    --      8.2414                 2.4036                62.9302

                     73                     74                     75
                      A                      A                      A
 Frequencies --   1140.4440              1221.2302              1248.3351
 Red. masses --      6.1511                 7.6335                 6.5191
 Frc consts  --      4.7136                 6.7076                 5.9855
 IR Inten    --      6.9464                21.4566                10.1856

                     76                     77                     78
                      A                      A                      A
 Frequencies --   1296.0306              1345.9457              1365.8065
 Red. masses --      8.9984                 8.5517                 8.1555
 Frc consts  --      8.9053                 9.1276                 8.9636
 IR Inten    --     62.6125                12.7333                41.4547

                     79                     80                     81
                      A                      A                      A
 Frequencies --   1413.1905              1425.9941              1443.8007
 Red. masses --      9.0413                10.2931                 8.4475
 Frc consts  --     10.6385                12.3320                10.3751
 IR Inten    --      1.2954                 0.9965                30.4022

                     82                     83                     84
                      A                      A                      A
 Frequencies --   1472.5226              1504.5376              1549.6466
 Red. masses --     10.1544                 9.1112                 8.6838
 Frc consts  --     12.9727                12.1515                12.2864
 IR Inten    --     21.4204                99.5810               247.5810

                     85                     86                     87
                      A                      A                      A
 Frequencies --   1644.8966              1693.2515              1725.3262
 Red. masses --     10.8654                10.5982                10.5009
 Frc consts  --     17.3210                17.9030                18.4170
 IR Inten    --     27.1866                47.1890                55.6385

                     88                     89                     90
                      A                      A                      A
 Frequencies --   1730.9640              1758.9824              4034.8906
 Red. masses --     10.1932                10.0543                 1.0911
 Frc consts  --     17.9944                18.3284                10.4663
 IR Inten    --     11.7627               264.3184                 1.4722

                     91                     92                     93
                      A                      A                      A
 Frequencies --   4418.0706              4467.5610              4469.0932
 Red. masses --      1.0583                 1.0320                 1.0334
 Frc consts  --     12.1710                12.1354                12.1611
 IR Inten    --     17.8858                24.1811                 8.5562

                     94                     95                     96
                      A                      A                      A
 Frequencies --   4541.8966              4668.7083              4670.1306
 Red. masses --      1.1108                 1.1077                 1.1062
 Frc consts  --     13.5011                14.2254                14.2151
 IR Inten    --      7.7025                 1.6635                 3.0584

                     97                     98                     99
                      A                      A                      A
 Frequencies --   4680.7592              4682.8523              5023.5038
 Red. masses --      1.1077                 1.1068                 1.0870
 Frc consts  --     14.2991                14.2999                16.1613
 IR Inten    --      1.2061                 1.6568                 0.3184

                    100                    101                    102
                      A                      A                      A
 Frequencies --   5033.5830              5040.1000              5054.0031
 Red. masses --      1.0892                 1.0923                 1.0904
 Frc consts  --     16.2593                16.3484                16.4107
 IR Inten    --      0.0358                 0.1755                 2.0344

                    103                    104                    105
                      A                      A                      A
 Frequencies --   5217.7632              5351.5737              6093.4139
 Red. masses --      1.0888                 1.0895                 1.0888
 Frc consts  --     17.4644                18.3844                23.8188
 IR Inten    --      0.6909                 3.2322                 1.3975

 - Thermochemistry -
 -------------------
 Temperature   298.150 Kelvin.  Pressure   1.00000 Atm.
 Atom     1 has atomic number  8 and mass  15.99491

 Molecular mass:   345.04767 amu.
 Principal axes and moments of inertia in atomic units:
                           1         2         3
     Eigenvalues --  5800.50608********************
           X            0.99853   0.05365  -0.00703
           Y           -0.05372   0.99852  -0.00891
           Z            0.00654   0.00928   0.99994
 This molecule is an asymmetric top.
 Rotational symmetry number  1.
 Warning -- assumption of classical behavior for rotation
           may cause significant error
 Rotational temperatures (Kelvin)      0.01493     0.00857     0.00746
 Rotational constants (GHZ):           0.31114     0.17862     0.15534
   24 imaginary frequencies ignored.
 Zero-point vibrational energy     796154.1 (Joules/Mol)
                                  190.28540 (Kcal/Mol)
 Warning -- explicit consideration of  22 degrees of freedom as
           vibrations may cause significant error
 Vibrational temperatures:     90.34   152.42   174.01   208.53   243.89
          (Kelvin)            295.81   375.99   422.51   431.33   446.80
                              479.11   496.22   547.46   700.76   712.48
                              732.90   758.34   784.17   821.48   824.80
                              852.06   865.84   904.25   935.60   981.16
                              984.61  1007.11  1057.97  1064.36  1068.80
                             1084.92  1128.78  1148.92  1182.73  1190.38
                             1212.94  1263.63  1377.67  1390.67  1485.23
                             1487.76  1491.79  1504.81  1510.04  1520.99
                             1524.53  1578.17  1633.40  1640.84  1757.08
                             1796.08  1864.70  1936.52  1965.09  2033.27
                             2051.69  2077.31  2118.63  2164.69  2229.60
                             2366.64  2436.21  2482.36  2490.47  2530.78
                             5805.31  6356.62  6427.82  6430.03  6534.78
                             6717.23  6719.28  6734.57  6737.58  7227.70
                             7242.20  7251.58  7271.58  7507.20  7699.72
                             8767.06

 Zero-point correction=                           0.303239 (Hartree/Particle)
 Thermal correction to Energy=                    0.316588
 Thermal correction to Enthalpy=                  0.317532
 Thermal correction to Gibbs Free Energy=         0.262495
 Sum of electronic and zero-point Energies=          -3430.117522
 Sum of electronic and thermal Energies=             -3430.104173
 Sum of electronic and thermal Enthalpies=           -3430.103228
 Sum of electronic and thermal Free Energies=        -3430.158266

                     E (Thermal)             CV                S
                      KCal/Mol        Cal/Mol-Kelvin    Cal/Mol-Kelvin
 Total                  198.662             55.761            115.837
 Electronic               0.000              0.000              0.000
 Translational            0.889              2.981             43.410
 Rotational               0.889              2.981             34.875
 Vibrational            196.885             49.799             37.552
 Vibration     1          0.597              1.972              4.367
 Vibration     2          0.605              1.944              3.342
 Vibration     3          0.609              1.932              3.085
 Vibration     4          0.616              1.908              2.738
 Vibration     5          0.625              1.880              2.441
 Vibration     6          0.640              1.832              2.082
 Vibration     7          0.669              1.744              1.653
 Vibration     8          0.688              1.686              1.453
 Vibration     9          0.692              1.674              1.418
 Vibration    10          0.699              1.654              1.359
 Vibration    11          0.715              1.610              1.245
 Vibration    12          0.723              1.586              1.189
 Vibration    13          0.750              1.512              1.037
 Vibration    14          0.843              1.279              0.691
 Vibration    15          0.851              1.261              0.670
 Vibration    16          0.865              1.229              0.635
 Vibration    17          0.882              1.190              0.594
 Vibration    18          0.900              1.151              0.555
 Vibration    19          0.927              1.094              0.502
 Vibration    20          0.930              1.089              0.498
 Vibration    21          0.950              1.048              0.463
 Vibration    22          0.960              1.028              0.447

 Normal termination of Gaussian 16 at Sat Mar  4 13:06:37 2023.
