 Gaussian 16, Revision C.01,
 Gaussian 16:  ES64L-G16RevC.01  3-Jul-2019

 ----------------------------------------------------------------------
 #p pop=(regular,nbo,savenbos) freq=noraman def2svp empiricaldispersion
 =gd3bj output=wfx pbe1pbe
 ----------------------------------------------------------------------

 ----------------------------------------
 WABVIG_Complex_0_Ligand_3_NN_Cu_oriented
 ----------------------------------------
 Symbolic Z-matrix:
 Charge =  0 Multiplicity = 1

                         Standard orientation:
 ---------------------------------------------------------------------
 Center     Atomic      Atomic             Coordinates (Angstroms)
 Number     Number       Type             X           Y           Z
 ---------------------------------------------------------------------
      1          6           0        3.595679   -1.285456   -0.599665
      2          1           0        3.184663   -2.040102   -1.111212
      3          6           0        3.636267   -0.079616   -1.533536
      4          1           0        2.724519    0.146789   -1.815819
      5          1           0        4.177716   -0.294029   -2.322585
      6          1           0        4.030960    0.683864   -1.064951
      7          6           0        5.020485   -1.722216   -0.209816
      8          1           0        5.449580   -1.009844    0.310852
      9          1           0        5.541990   -1.894102   -1.021498
     10          1           0        4.976246   -2.538505    0.329526
     11          6           0        2.752275   -1.074488    0.647479
     12          1           0        2.791441   -1.887276    1.228830
     13          6           0        3.103980    0.173328    1.463637
     14          1           0        2.999871    0.002635    2.434127
     15          1           0        4.035102    0.460988    1.287112
     16          6           0        1.159198    0.474399    0.451288
     17          6           0        0.004066    1.347725    0.047696
     18          6           0        0.467339    2.292909   -1.076905
     19          1           0        1.260611    2.787777   -0.781192
     20          1           0       -0.251352    2.923770   -1.289658
     21          1           0        0.687029    1.767482   -1.875412
     22          6           0       -1.184135    0.564767   -0.439662
     23          6           0       -3.200622    0.420199   -1.370460
     24          1           0       -3.194940    0.403230   -2.360620
     25          6           0       -2.798835   -0.932982   -0.800166
     26          1           0       -2.870830   -1.634111   -1.508753
     27          6           0       -3.558734   -1.381643    0.448419
     28          1           0       -3.110118   -2.211212    0.783772
     29          7           0        1.332485   -0.770053    0.285654
     30          7           0       -1.366074   -0.699856   -0.468326
     31          8           0        2.164494    1.165353    1.013471
     32          8           0       -2.188172    1.330231   -0.858184
     33          6           0       -3.519435   -0.368941    1.577160
     34          1           0       -2.589416   -0.212226    1.844110
     35          1           0       -4.025330   -0.712325    2.343323
     36          1           0       -3.918978    0.472918    1.274008
     37          6           0       -0.450315    2.160394    1.269082
     38          1           0       -0.725911    1.548700    1.983776
     39          1           0       -1.206265    2.730586    1.018951
     40          1           0        0.289990    2.718513    1.583943
     41          6           0       -4.997007   -1.761923    0.089378
     42          1           0       -5.463038   -2.070286    0.894559
     43          1           0       -5.459133   -0.980338   -0.275882
     44          1           0       -4.103813    0.681723   -1.058180
     45          1           0       -4.987277   -2.478662   -0.578276
 ---------------------------------------------------------------------

 SCF Done:  E(RPBE1PBE) =  -845.365310201     A.U. after   14 cycles

 The electronic state is 1-A.
 Alpha  occ. eigenvalues --  -19.24001 -19.23809 -14.34846 -14.34653 -10.30416
 Alpha  occ. eigenvalues --  -10.30385 -10.26278 -10.26161 -10.26062 -10.24212
 Alpha  occ. eigenvalues --  -10.24061 -10.21548 -10.21372 -10.19430 -10.19275
 Alpha  occ. eigenvalues --  -10.18705 -10.18577 -10.17902 -10.17806  -1.11118
 Alpha  occ. eigenvalues --   -1.10848  -0.90795  -0.89908  -0.86506  -0.82979
 Alpha  occ. eigenvalues --   -0.82331  -0.77542  -0.76244  -0.73667  -0.72667
 Alpha  occ. eigenvalues --   -0.72603  -0.67646  -0.66963  -0.65883  -0.61181
 Alpha  occ. eigenvalues --   -0.59042  -0.58180  -0.53834  -0.53496  -0.53321
 Alpha  occ. eigenvalues --   -0.51467  -0.49774  -0.48219  -0.47701  -0.47272
 Alpha  occ. eigenvalues --   -0.46834  -0.45897  -0.45584  -0.45441  -0.44999
 Alpha  occ. eigenvalues --   -0.44908  -0.43054  -0.42096  -0.42032  -0.41546
 Alpha  occ. eigenvalues --   -0.41269  -0.39407  -0.38168  -0.38144  -0.37755
 Alpha  occ. eigenvalues --   -0.37363  -0.36801  -0.35837  -0.35555  -0.34669
 Alpha  occ. eigenvalues --   -0.34216  -0.33745  -0.33278  -0.33062  -0.27660
 Alpha  occ. eigenvalues --   -0.25272  -0.24437  -0.23622
 Alpha virt. eigenvalues --    0.03975   0.04101   0.07430   0.07985   0.09050
 Alpha virt. eigenvalues --    0.11196   0.11509   0.11649   0.12065   0.12185
 Alpha virt. eigenvalues --    0.13230   0.13996   0.14250   0.14589   0.14702

 Mulliken charges:
               1
     1  C   -0.148436
     2  H    0.002360
     3  C    0.162163
     4  H   -0.002511
     5  H   -0.015261
     6  H   -0.026723
     7  C    0.160797
     8  H   -0.026066
     9  H   -0.010376
    10  H   -0.012254
    11  C   -0.042749
    12  H   -0.018410
    13  C    0.377424
    14  H   -0.005713
    15  H   -0.019409
    16  C    0.154309
    17  C   -0.380290
    18  C    0.235112
    19  H   -0.004004
    20  H   -0.002505
    21  H   -0.001315
    22  C    0.154876
    23  C    0.383939
    24  H   -0.003392
    25  C   -0.050052
    26  H   -0.019515
    27  C   -0.150517
    28  H    0.002070
    29  N   -0.195264
    30  N   -0.207390
    31  O   -0.366379
    32  O   -0.363421
    33  C    0.164148
    34  H   -0.000350
    35  H   -0.016209
    36  H   -0.029481
    37  C    0.238493
    38  H   -0.007779
    39  H   -0.005071
    40  H   -0.002626
    41  C    0.166509
    42  H   -0.011036
    43  H   -0.029197
    44  H   -0.015892
    45  H   -0.012607
 Sum of Mulliken charges =  -0.00000

 Dipole moment (field-independent basis, Debye):
    X=             -0.0539    Y=              0.5888    Z=              0.1065  Tot=              0.6008
 Quadrupole moment (field-independent basis, Debye-Ang):
   XX=            -99.0589   YY=           -116.7946   ZZ=           -109.9845
   XY=             -0.4977   XZ=              3.9750   YZ=             -0.8505

  Exact polarizability:     181.551      -0.086     149.972       3.098       0.207     134.711
 Approx polarizability:     210.309      -0.232     232.750       7.284       2.954     187.815

 Summary of Natural Population Analysis:

                                       Natural Population
                Natural  -----------------------------------------------
    Atom  No    Charge         Core      Valence    Rydberg      Total
 -----------------------------------------------------------------------
      C    1   -0.20299      1.99905     4.18900    0.01494     6.20299
      H    2    0.20380      0.00000     0.79058    0.00563     0.79620
      C    3   -0.56844      1.99918     4.55870    0.01056     6.56844
      H    4    0.19804      0.00000     0.79857    0.00339     0.80196
      H    5    0.19561      0.00000     0.80184    0.00255     0.80439
      H    6    0.18481      0.00000     0.81218    0.00301     0.81519
      C    7   -0.55954      1.99919     4.55012    0.01023     6.55954
      H    8    0.18130      0.00000     0.81580    0.00290     0.81870
      H    9    0.19617      0.00000     0.80125    0.00258     0.80383
      H   10    0.19045      0.00000     0.80684    0.00271     0.80955
      C   11   -0.04327      1.99897     4.02176    0.02254     6.04327
      H   12    0.20110      0.00000     0.79544    0.00346     0.79890
      C   13   -0.02004      1.99890     4.00188    0.01925     6.02004
      H   14    0.17334      0.00000     0.82334    0.00333     0.82666
      H   15    0.17559      0.00000     0.82124    0.00316     0.82441
      C   16    0.61067      1.99900     3.34118    0.04915     5.38933
      C   17   -0.14594      1.99888     4.12969    0.01737     6.14594
      C   18   -0.53958      1.99916     4.52714    0.01328     6.53958
      H   19    0.20430      0.00000     0.79273    0.00296     0.79570
      H   20    0.20591      0.00000     0.79124    0.00285     0.79409
      H   21    0.19951      0.00000     0.79797    0.00252     0.80049
      C   22    0.61407      1.99902     3.33761    0.04929     5.38593
      C   23   -0.02029      1.99887     4.00298    0.01844     6.02029
      H   24    0.17506      0.00000     0.82173    0.00322     0.82494
      C   25   -0.04476      1.99898     4.02316    0.02262     6.04476
      H   26    0.20054      0.00000     0.79592    0.00353     0.79946
      C   27   -0.19992      1.99906     4.18584    0.01502     6.19992
      H   28    0.20435      0.00000     0.79000    0.00565     0.79565
      N   29   -0.52699      1.99927     5.51119    0.01653     7.52699
      N   30   -0.53571      1.99929     5.52000    0.01642     7.53571
      O   31   -0.58540      1.99966     6.57500    0.01073     8.58540
      O   32   -0.58166      1.99965     6.57128    0.01073     8.58166
      C   33   -0.57018      1.99918     4.56047    0.01053     6.57018
      H   34    0.19899      0.00000     0.79748    0.00353     0.80101
      H   35    0.19558      0.00000     0.80185    0.00257     0.80442
      H   36    0.18398      0.00000     0.81298    0.00304     0.81602
      C   37   -0.54067      1.99916     4.52807    0.01343     6.54067
      H   38    0.19876      0.00000     0.79876    0.00247     0.80124
      H   39    0.20429      0.00000     0.79276    0.00295     0.79571
      H   40    0.20664      0.00000     0.79046    0.00291     0.79336
      C   41   -0.56050      1.99919     4.55105    0.01026     6.56050
      H   42    0.19605      0.00000     0.80133    0.00262     0.80395
      H   43    0.18012      0.00000     0.81692    0.00296     0.81988
      H   44    0.17597      0.00000     0.82082    0.00321     0.82403
      H   45    0.19086      0.00000     0.80641    0.00273     0.80914
 =======================================================================
   * Total *   -0.00000     37.98369   107.58255    0.43376   146.00000

 ******   27 imaginary frequencies (negative Signs) ******

                      1                      2                      3
                      A                      A                      A
 Frequencies --  -1230.5145             -1226.1709             -1225.6369
 Red. masses --      1.0085                 1.0094                 1.0092
 Frc consts  --      0.8997                 0.8941                 0.8932
 IR Inten    --      0.0048                 0.0350                 0.0114

                      4                      5                      6
                      A                      A                      A
 Frequencies --  -1220.5996             -1219.9671             -1216.8408
 Red. masses --      1.0088                 1.0101                 1.0096
 Frc consts  --      0.8855                 0.8858                 0.8808
 IR Inten    --      0.0049                 0.0218                 0.3860

                      7                      8                      9
                      A                      A                      A
 Frequencies --   -857.5984              -856.1380              -837.3022
 Red. masses --      1.0860                 1.0850                 1.0773
 Frc consts  --      0.4706                 0.4686                 0.4450
 IR Inten    --      7.7696                 6.7418                 2.3184

                     10                     11                     12
                      A                      A                      A
 Frequencies --   -831.7480              -815.5599              -814.4790
 Red. masses --      1.0811                 1.0485                 1.0507
 Frc consts  --      0.4406                 0.4109                 0.4107
 IR Inten    --      2.2936                 1.5449                 1.1774

                     13                     14                     15
                      A                      A                      A
 Frequencies --   -800.7849              -799.5318              -792.5943
 Red. masses --      1.0681                 1.0664                 1.0648
 Frc consts  --      0.4036                 0.4016                 0.3941
 IR Inten    --      7.8726                12.7053                29.6592

                     16                     17                     18
                      A                      A                      A
 Frequencies --   -779.3397              -778.7821              -759.6368
 Red. masses --      1.0208                 1.0289                 1.0763
 Frc consts  --      0.3653                 0.3677                 0.3659
 IR Inten    --      0.0418                 0.5469                 2.6733

                     19                     20                     21
                      A                      A                      A
 Frequencies --   -756.7292              -751.5495              -305.2942
 Red. masses --      1.0624                 1.0428                 2.8113
 Frc consts  --      0.3585                 0.3470                 0.1544
 IR Inten    --      4.4105                 1.0201                 0.3870

                     22                     23                     24
                      A                      A                      A
 Frequencies --   -281.6653              -212.0070              -195.4397
 Red. masses --      2.5512                 2.5285                 2.6484
 Frc consts  --      0.1192                 0.0670                 0.0596
 IR Inten    --      0.2173                 7.7605                 0.0506

                     25                     26                     27
                      A                      A                      A
 Frequencies --   -161.6535              -134.2853              -124.2231
 Red. masses --      2.4003                 3.1641                 3.2319
 Frc consts  --      0.0370                 0.0336                 0.0294
 IR Inten    --      0.6453                 0.8601                 1.0929

                     28                     29                     30
                      A                      A                      A
 Frequencies --     68.0452               141.0513               162.5445
 Red. masses --      4.9771                 4.5968                 4.4602
 Frc consts  --      0.0136                 0.0539                 0.0694
 IR Inten    --      0.4298                 2.3270                 0.5455

                     31                     32                     33
                      A                      A                      A
 Frequencies --    296.9934               316.9649               321.1476
 Red. masses --      4.2392                 3.4253                 3.6716
 Frc consts  --      0.2203                 0.2028                 0.2231
 IR Inten    --      2.2522                 6.5444                 0.9234

                     34                     35                     36
                      A                      A                      A
 Frequencies --    376.8151               403.7974               431.5197
 Red. masses --      3.0705                 3.3387                 4.6946
 Frc consts  --      0.2569                 0.3207                 0.5151
 IR Inten    --      1.1337                 2.2900                 5.3801

                     37                     38                     39
                      A                      A                      A
 Frequencies --    450.8168               458.9298               460.5198
 Red. masses --      4.3927                 3.9791                 3.8081
 Frc consts  --      0.5260                 0.4938                 0.4758
 IR Inten    --      4.9114                 4.6229                 4.4999

                     40                     41                     42
                      A                      A                      A
 Frequencies --    532.4965               538.8250               586.3822
 Red. masses --      3.9931                 3.4629                 1.4640
 Frc consts  --      0.6671                 0.5924                 0.2966
 IR Inten    --      4.9199                 3.8375                 8.1083

                     43                     44                     45
                      A                      A                      A
 Frequencies --    592.4283               696.1027               701.6367
 Red. masses --      1.5218                 3.5855                 2.9393
 Frc consts  --      0.3147                 1.0236                 0.8526
 IR Inten    --      1.1425                 5.5863                 7.0098

                     46                     47                     48
                      A                      A                      A
 Frequencies --    702.7597               706.6603               707.1098
 Red. masses --      3.1955                 1.4451                 1.2677
 Frc consts  --      0.9298                 0.4252                 0.3735
 IR Inten    --      8.5579                33.7120                 4.5868

                     49                     50                     51
                      A                      A                      A
 Frequencies --    709.2990               716.5740               732.8523
 Red. masses --      1.5527                 2.2349                 1.7300
 Frc consts  --      0.4603                 0.6761                 0.5474
 IR Inten    --      3.7607                 1.1275                 8.8035

                     52                     53                     54
                      A                      A                      A
 Frequencies --    743.4049               747.4884               751.5218
 Red. masses --      1.3698                 1.3866                 2.2222
 Frc consts  --      0.4460                 0.4565                 0.7395
 IR Inten    --      8.9337                 8.7599                 2.5771

                     55                     56                     57
                      A                      A                      A
 Frequencies --    756.9350               772.9340               776.6769
 Red. masses --      1.6511                 1.2306                 1.8594
 Frc consts  --      0.5574                 0.4332                 0.6608
 IR Inten    --      6.4644                22.8934                 3.2392

                     58                     59                     60
                      A                      A                      A
 Frequencies --    779.4265               801.4944               813.0499
 Red. masses --      2.0548                 1.7840                 2.0975
 Frc consts  --      0.7355                 0.6752                 0.8169
 IR Inten    --      3.2662                31.0840                11.7371

                     61                     62                     63
                      A                      A                      A
 Frequencies --    828.4365               833.9976               863.4495
 Red. masses --      2.3096                 2.4091                 2.8191
 Frc consts  --      0.9339                 0.9873                 1.2383
 IR Inten    --      8.5659                 4.4683                 3.4014

                     64                     65                     66
                      A                      A                      A
 Frequencies --    869.2061               922.4667               938.5867
 Red. masses --      2.6691                 1.5338                 1.6483
 Frc consts  --      1.1881                 0.7690                 0.8556
 IR Inten    --      0.9315                 4.3145                 8.3238

                     67                     68                     69
                      A                      A                      A
 Frequencies --    950.6566               954.8656               958.2625
 Red. masses --      2.9129                 2.6884                 2.8616
 Frc consts  --      1.5510                 1.4442                 1.5482
 IR Inten    --     43.2599                23.3262                 6.9180

                     70                     71                     72
                      A                      A                      A
 Frequencies --    981.8461               982.9649              1000.2749
 Red. masses --      3.7319                 3.7363                 3.0886
 Frc consts  --      2.1197                 2.1270                 1.8208
 IR Inten    --     31.5367                27.0658                19.1567

                     73                     74                     75
                      A                      A                      A
 Frequencies --   1009.0950              1015.8017              1026.7632
 Red. masses --      2.7532                 3.4008                 5.1149
 Frc consts  --      1.6518                 2.0675                 3.1771
 IR Inten    --     26.2550                 1.3572                 6.7944

                     76                     77                     78
                      A                      A                      A
 Frequencies --   1053.5779              1087.7469              1093.3692
 Red. masses --      5.0965                 1.3645                 1.2645
 Frc consts  --      3.3332                 0.9512                 0.8907
 IR Inten    --     11.7833                 3.2056                 7.2656

                     79                     80                     81
                      A                      A                      A
 Frequencies --   1097.3042              1100.0297              1104.4518
 Red. masses --      1.2407                 1.2640                 1.4943
 Frc consts  --      0.8802                 0.9012                 1.0739
 IR Inten    --     19.2156                 2.5113                26.0625

                     82                     83                     84
                      A                      A                      A
 Frequencies --   1106.3629              1107.3713              1120.1310
 Red. masses --      1.2756                 1.6693                 1.0288
 Frc consts  --      0.9199                 1.2060                 0.7605
 IR Inten    --      5.3245                75.0208                 0.8915

                     85                     86                     87
                      A                      A                      A
 Frequencies --   1126.1556              1128.7444              1150.1142
 Red. masses --      1.0403                 1.0467                 1.3920
 Frc consts  --      0.7773                 0.7857                 1.0849
 IR Inten    --      1.1668                 1.8354                 2.4579

                     88                     89                     90
                      A                      A                      A
 Frequencies --   1157.8557              1173.9613              1184.6362
 Red. masses --      1.3346                 1.6085                 1.5874
 Frc consts  --      1.0541                 1.3061                 1.3125
 IR Inten    --      0.3685                 6.9689                 1.6117

                     91                     92                     93
                      A                      A                      A
 Frequencies --   1187.0742              1190.6407              1196.6455
 Red. masses --      1.7828                 1.7697                 1.8312
 Frc consts  --      1.4802                 1.4782                 1.5449
 IR Inten    --      4.2421                 6.6980                10.4719

                     94                     95                     96
                      A                      A                      A
 Frequencies --   1223.9056              1227.9243              1234.4724
 Red. masses --      2.5806                 2.2773                 2.7379
 Frc consts  --      2.2775                 2.0231                 2.4583
 IR Inten    --     32.0740                71.0911                12.8397

                     97                     98                     99
                      A                      A                      A
 Frequencies --   1245.7338              1287.2893              1292.6693
 Red. masses --      3.9598                 3.9172                 4.0505
 Frc consts  --      3.6206                 3.8245                 3.9878
 IR Inten    --      2.1373                 3.7253                 3.1513

                    100                    101                    102
                      A                      A                      A
 Frequencies --   1385.1056              1452.9762              1733.1361
 Red. masses --      7.5081                 7.5016                12.0096
 Frc consts  --      8.4868                 9.3308                21.2541
 IR Inten    --     32.5489               118.9674               103.6011

                    103                    104                    105
                      A                      A                      A
 Frequencies --   1787.2466              4118.5407              4128.8592
 Red. masses --     12.1238                 1.0872                 1.0871
 Frc consts  --     22.8170                10.8650                10.9189
 IR Inten    --    193.2819                 6.6291                 5.0637

                    106                    107                    108
                      A                      A                      A
 Frequencies --   4135.1990              4138.5872              4188.6900
 Red. masses --      1.0885                 1.0883                 1.0591
 Frc consts  --     10.9661                10.9826                10.9484
 IR Inten    --     13.2563                13.1454                19.6417

                    109                    110                    111
                      A                      A                      A
 Frequencies --   4191.0581              4233.4700              4235.0848
 Red. masses --      1.0589                 1.0320                 1.0324
 Frc consts  --     10.9590                10.8973                10.9104
 IR Inten    --     16.3770                12.0292                 0.8101

                    112                    113                    114
                      A                      A                      A
 Frequencies --   4235.2090              4235.9473              4240.8343
 Red. masses --      1.0324                 1.0324                 1.0320
 Frc consts  --     10.9101                10.9139                10.9353
 IR Inten    --      7.3164                11.7166                12.1939

                    115                    116                    117
                      A                      A                      A
 Frequencies --   4244.2370              4303.4418              4306.5370
 Red. masses --      1.0325                 1.1118                 1.1123
 Frc consts  --     10.9579                12.1317                12.1540
 IR Inten    --      5.4548                 7.0154                 6.0472

                    118                    119                    120
                      A                      A                      A
 Frequencies --   4419.0540              4420.6045              4423.5008
 Red. masses --      1.1067                 1.1064                 1.1070
 Frc consts  --     12.7332                12.7392                12.7626
 IR Inten    --      4.2577                 7.8674                 1.2974

                    121                    122                    123
                      A                      A                      A
 Frequencies --   4423.7113              4428.2049              4430.1804
 Red. masses --      1.1067                 1.1065                 1.1070
 Frc consts  --     12.7601                12.7835                12.8012
 IR Inten    --      6.3713                 2.9857                 5.5266

                    124                    125                    126
                      A                      A                      A
 Frequencies --   4432.2232              4433.1483              4433.4573
 Red. masses --      1.1068                 1.1069                 1.1070
 Frc consts  --     12.8103                12.8167                12.8204
 IR Inten    --      2.0359                 1.4034                 4.4380

                    127                    128                    129
                      A                      A                      A
 Frequencies --   4433.9926              4438.5143              4441.8674
 Red. masses --      1.1065                 1.1066                 1.1069
 Frc consts  --     12.8171                12.8448                12.8676
 IR Inten    --      5.5295                 7.1827                 1.0126

 - Thermochemistry -
 -------------------
 Temperature   298.150 Kelvin.  Pressure   1.00000 Atm.
 Atom     1 has atomic number  6 and mass  12.00000

 Molecular mass:   266.19943 amu.
 Principal axes and moments of inertia in atomic units:
                           1         2         3
     Eigenvalues --  2453.093458848.689629494.27504
           X            0.99995   0.00098  -0.00954
           Y           -0.00101   0.99999  -0.00357
           Z            0.00953   0.00358   0.99995
 This molecule is an asymmetric top.
 Rotational symmetry number  1.
 Warning -- assumption of classical behavior for rotation
           may cause significant error
 Rotational temperatures (Kelvin)      0.03531     0.00979     0.00912
 Rotational constants (GHZ):           0.73570     0.20396     0.19009
   27 imaginary frequencies ignored.
 Zero-point vibrational energy    1071989.6 (Joules/Mol)
                                  256.21166 (Kcal/Mol)
 Warning -- explicit consideration of  16 degrees of freedom as
           vibrations may cause significant error
 Vibrational temperatures:     97.90   202.94   233.87   427.31   456.04
          (Kelvin)            462.06   542.15   580.97   620.86   648.62
                              660.30   662.59   766.14   775.25   843.67
                              852.37  1001.54  1009.50  1011.11  1016.73
                             1017.37  1020.52  1030.99  1054.41  1069.59
                             1075.47  1081.27  1089.06  1112.08  1117.46
                             1121.42  1153.17  1169.80  1191.94  1199.94
                             1242.31  1250.59  1327.22  1350.42  1367.78
                             1373.84  1378.73  1412.66  1414.27  1439.17
                             1451.86  1461.51  1477.28  1515.86  1565.03
                             1573.11  1578.78  1582.70  1589.06  1591.81
                             1593.26  1611.62  1620.29  1624.01  1654.76
                             1665.90  1689.07  1704.43  1707.94  1713.07
                             1721.71  1760.93  1766.71  1776.13  1792.33
                             1852.12  1859.86  1992.86  2090.51  2493.60
                             2571.45  5925.66  5940.51  5949.63  5954.50
                             6026.59  6030.00  6091.02  6093.34  6093.52
                             6094.58  6101.61  6106.51  6191.69  6196.15
                             6358.03  6360.26  6364.43  6364.73  6371.20
                             6374.04  6376.98  6378.31  6378.76  6379.53
                             6386.03  6390.86

 Zero-point correction=                           0.408299 (Hartree/Particle)
 Thermal correction to Energy=                    0.419719
 Thermal correction to Enthalpy=                  0.420663
 Thermal correction to Gibbs Free Energy=         0.370915
 Sum of electronic and zero-point Energies=           -844.957011
 Sum of electronic and thermal Energies=              -844.945591
 Sum of electronic and thermal Enthalpies=            -844.944647
 Sum of electronic and thermal Free Energies=         -844.994395

                     E (Thermal)             CV                S
                      KCal/Mol        Cal/Mol-Kelvin    Cal/Mol-Kelvin
 Total                  263.378             55.010            104.703
 Electronic               0.000              0.000              0.000
 Translational            0.889              2.981             42.636
 Rotational               0.889              2.981             33.688
 Vibrational            261.600             49.049             28.379
 Vibration     1          0.598              1.969              4.209
 Vibration     2          0.615              1.912              2.790
 Vibration     3          0.623              1.888              2.520
 Vibration     4          0.691              1.679              1.434
 Vibration     5          0.704              1.641              1.326
 Vibration     6          0.707              1.633              1.304
 Vibration     7          0.747              1.520              1.052
 Vibration     8          0.769              1.462              0.949
 Vibration     9          0.793              1.402              0.854
 Vibration    10          0.810              1.359              0.793
 Vibration    11          0.817              1.341              0.769
 Vibration    12          0.818              1.338              0.765
 Vibration    13          0.887              1.178              0.582
 Vibration    14          0.894              1.164              0.568
 Vibration    15          0.943              1.061              0.474
 Vibration    16          0.950              1.048              0.463

 Normal termination of Gaussian 16 at Sat Mar  4 13:16:47 2023.
