 Gaussian 16, Revision C.01,
 Gaussian 16:  ES64L-G16RevC.01  3-Jul-2019

 ----------------------------------------------------------------------
 #p pop=(regular,nbo,savenbos) freq=noraman def2svp empiricaldispersion
 =gd3bj output=wfx pbe1pbe
 ----------------------------------------------------------------------

 ----------------------------------------
 WAPNUX_Complex_1_Ligand_2_OO_Cu_oriented
 ----------------------------------------
 Symbolic Z-matrix:
 Charge = -1 Multiplicity = 1

                         Standard orientation:
 ---------------------------------------------------------------------
 Center     Atomic      Atomic             Coordinates (Angstroms)
 Number     Number       Type             X           Y           Z
 ---------------------------------------------------------------------
      1          6           0       -0.344756   -0.063756    0.364248
      2          6           0       -0.784869   -0.864798   -0.669964
      3          1           0       -0.187902   -1.435944   -1.095120
      4          6           0       -2.098977   -0.827594   -1.081853
      5          1           0       -2.381157   -1.369352   -1.783148
      6          6           0       -2.981382    0.001159   -0.464071
      7          1           0       -3.865211    0.039104   -0.752012
      8          6           0       -2.564933    0.778722    0.581207
      9          1           0       -3.167318    1.343399    1.006899
     10          6           0       -1.241495    0.725244    1.011961
     11          1           0       -0.972195    1.231381    1.744884
     12          6           0        1.112628   -0.103854    0.779383
     13          1           0        1.216641    0.434333    1.591134
     14          6           0        1.999536    0.513292   -0.333260
     15          8           0        1.544945   -1.419628    1.057767
     16          1           0        1.345193   -1.616432    1.828207
     17          8           0        2.902350   -0.195232   -0.852535
     18          8           0        1.732385    1.667737   -0.663577
 ---------------------------------------------------------------------

 SCF Done:  E(RPBE1PBE) =  -533.632937260     A.U. after   15 cycles

 The electronic state is 1-A.
 Alpha  occ. eigenvalues --  -19.03489 -18.92836 -18.92512 -10.10085 -10.09748
 Alpha  occ. eigenvalues --  -10.09527 -10.09489 -10.09108 -10.09047 -10.08623
 Alpha  occ. eigenvalues --  -10.08105  -0.91660  -0.82680  -0.76186  -0.72744
 Alpha  occ. eigenvalues --   -0.66561  -0.65300  -0.57052  -0.52427  -0.49615
 Alpha  occ. eigenvalues --   -0.44068  -0.39874  -0.37877  -0.34898  -0.33483
 Alpha  occ. eigenvalues --   -0.32660  -0.31814  -0.26445  -0.25249  -0.24431
 Alpha  occ. eigenvalues --   -0.23834  -0.20225  -0.19017  -0.18259  -0.14649
 Alpha  occ. eigenvalues --   -0.14271  -0.12818  -0.04156  -0.03953  -0.02124
 Alpha virt. eigenvalues --    0.12231   0.13246   0.20582   0.21946   0.23831
 Alpha virt. eigenvalues --    0.25703   0.27003   0.28423   0.29453   0.31527
 Alpha virt. eigenvalues --    0.32470   0.39865   0.40756   0.42052   0.43411

 Mulliken charges:
               1
     1  C   -0.054302
     2  C    0.118237
     3  H   -0.114162
     4  C    0.089138
     5  H   -0.124072
     6  C    0.081302
     7  H   -0.128596
     8  C    0.088075
     9  H   -0.128487
    10  C    0.074862
    11  H   -0.140639
    12  C    0.253747
    13  H   -0.082457
    14  C    0.082127
    15  O   -0.225864
    16  H    0.052630
    17  O   -0.425661
    18  O   -0.415878
 Sum of Mulliken charges =  -1.00000

 Dipole moment (field-independent basis, Debye):
    X=             -9.1722    Y=             -2.3268    Z=              4.4061  Tot=             10.4383
 Quadrupole moment (field-independent basis, Debye-Ang):
   XX=            -94.6934   YY=            -73.5851   ZZ=            -62.8273
   XY=             -3.2185   XZ=             10.9574   YZ=              4.1488

  Exact polarizability:     112.569      -6.538      69.721       1.857      11.985      70.645
 Approx polarizability:     164.015     -19.021     115.551       1.299      26.532     111.610

 Summary of Natural Population Analysis:

                                       Natural Population
                Natural  -----------------------------------------------
    Atom  No    Charge         Core      Valence    Rydberg      Total
 -----------------------------------------------------------------------
      C    1   -0.01987      1.99898     3.99931    0.02159     6.01987
      C    2   -0.14958      1.99898     4.13327    0.01733     6.14958
      H    3    0.17789      0.00000     0.81679    0.00532     0.82211
      C    4   -0.17936      1.99910     4.16576    0.01450     6.17936
      H    5    0.15876      0.00000     0.83797    0.00327     0.84124
      C    6   -0.21098      1.99910     4.19721    0.01467     6.21098
      H    7    0.15708      0.00000     0.83952    0.00340     0.84292
      C    8   -0.17777      1.99911     4.16390    0.01476     6.17777
      H    9    0.15550      0.00000     0.84123    0.00328     0.84450
      C   10   -0.18161      1.99895     4.16679    0.01587     6.18161
      H   11    0.16453      0.00000     0.83178    0.00369     0.83547
      C   12    0.02831      1.99877     3.94342    0.02950     5.97169
      H   13    0.15185      0.00000     0.84303    0.00512     0.84815
      C   14    0.77769      1.99948     3.14881    0.07402     5.22231
      O   15   -0.70627      1.99968     6.68693    0.01966     8.70627
      H   16    0.40262      0.00000     0.58945    0.00793     0.59738
      O   17   -0.76577      1.99976     6.75659    0.00942     8.76577
      O   18   -0.78301      1.99974     6.77306    0.01022     8.78301
 =======================================================================
   * Total *   -1.00000     21.99166    57.73479    0.27355    80.00000

 ******   14 imaginary frequencies (negative Signs) ******

                      1                      2                      3
                      A                      A                      A
 Frequencies --  -2096.9352             -1599.3425             -1473.9450
 Red. masses --      1.0719                 1.0927                 1.0892
 Frc consts  --      2.7771                 1.6468                 1.3941
 IR Inten    --    125.9898               113.7481                70.1182

                      4                      5                      6
                      A                      A                      A
 Frequencies --  -1363.3873             -1323.0500             -1257.0614
 Red. masses --      1.0963                 1.0444                 1.0216
 Frc consts  --      1.2006                 1.0771                 0.9511
 IR Inten    --      0.1087                 0.7068                 0.0565

                      7                      8                      9
                      A                      A                      A
 Frequencies --  -1182.5269              -950.6389              -917.8042
 Red. masses --      1.0411                 1.0673                 1.1457
 Frc consts  --      0.8577                 0.5683                 0.5686
 IR Inten    --      0.2811                 0.8650                 0.1440

                     10                     11                     12
                      A                      A                      A
 Frequencies --   -833.8067              -733.5532              -720.9648
 Red. masses --      1.0991                 1.1416                 1.0555
 Frc consts  --      0.4502                 0.3619                 0.3232
 IR Inten    --     13.0077                 4.0432                13.0009

                     13                     14                     15
                      A                      A                      A
 Frequencies --   -426.4754              -153.6824                77.7129
 Red. masses --      1.3342                 5.0863                 7.8560
 Frc consts  --      0.1430                 0.0708                 0.0280
 IR Inten    --      3.3059                 2.1072                 0.9212

                     16                     17                     18
                      A                      A                      A
 Frequencies --    110.1397               254.9190               288.3774
 Red. masses --     10.0895                 8.1469                 6.6692
 Frc consts  --      0.0721                 0.3119                 0.3268
 IR Inten    --      7.4422                 9.9699                 1.5516

                     19                     20                     21
                      A                      A                      A
 Frequencies --    373.7881               476.4446               507.1367
 Red. masses --      6.7261                 4.0235                10.6202
 Frc consts  --      0.5537                 0.5381                 1.6093
 IR Inten    --      4.6566                 5.2098                 2.2013

                     22                     23                     24
                      A                      A                      A
 Frequencies --    529.2734               628.7758               697.4324
 Red. masses --     10.2905                 6.8655                 4.3848
 Frc consts  --      1.6984                 1.5992                 1.2566
 IR Inten    --      0.4516                 4.4171                17.4003

                     25                     26                     27
                      A                      A                      A
 Frequencies --    745.6478               783.0326               812.7129
 Red. masses --      4.1260                 4.9563                 5.1078
 Frc consts  --      1.3516                 1.7905                 1.9877
 IR Inten    --      8.7488                 6.4862                 8.6019

                     28                     29                     30
                      A                      A                      A
 Frequencies --    837.5093               859.7622               954.5420
 Red. masses --      3.0664                 4.6502                 6.7810
 Frc consts  --      1.2672                 2.0252                 3.6403
 IR Inten    --     32.1226                 5.8511                 5.0580

                     31                     32                     33
                      A                      A                      A
 Frequencies --   1013.0159              1066.6813              1152.9272
 Red. masses --      5.9035                 6.4271                 7.2099
 Frc consts  --      3.5694                 4.3086                 5.6465
 IR Inten    --     12.1720                 0.1656                68.4321

                     34                     35                     36
                      A                      A                      A
 Frequencies --   1225.1073              1387.3667              1440.4854
 Red. masses --      7.9947                 8.1715                12.3929
 Frc consts  --      7.0697                 9.2669                15.1510
 IR Inten    --     21.2576                 0.7737               307.5023

                     37                     38                     39
                      A                      A                      A
 Frequencies --   1472.8794              1545.0938              1681.1009
 Red. masses --      9.1236                 8.9063                10.5966
 Frc consts  --     11.6614                12.5273                17.6444
 IR Inten    --     12.5169                 1.7866                17.4374

                     40                     41                     42
                      A                      A                      A
 Frequencies --   1768.4654              1814.1216              4359.6503
 Red. masses --     10.0393                12.8633                 1.0869
 Frc consts  --     18.4989                24.9422                12.1714
 IR Inten    --      1.7812               392.1460                27.6872

                     43                     44                     45
                      A                      A                      A
 Frequencies --   5013.6641              5020.3827              5029.4188
 Red. masses --      1.0864                 1.0887                 1.0901
 Frc consts  --     16.0904                16.1672                16.2455
 IR Inten    --      1.0325                 1.6484                 7.8512

                     46                     47                     48
                      A                      A                      A
 Frequencies --   5045.0936              5049.2933              6298.8337
 Red. masses --      1.0908                 1.0906                 1.0672
 Frc consts  --     16.3576                16.3831                24.9463
 IR Inten    --      7.1857                 2.1751                33.6854

 - Thermochemistry -
 -------------------
 Temperature   298.150 Kelvin.  Pressure   1.00000 Atm.
 Atom     1 has atomic number  6 and mass  12.00000

 Molecular mass:   151.03952 amu.
 Principal axes and moments of inertia in atomic units:
                           1         2         3
     Eigenvalues --   791.164112440.057462525.20589
           X            0.99987  -0.01081   0.01178
           Y            0.00797   0.97569   0.21902
           Z           -0.01386  -0.21890   0.97565
 This molecule is an asymmetric top.
 Rotational symmetry number  1.
 Warning -- assumption of classical behavior for rotation
           may cause significant error
 Rotational temperatures (Kelvin)      0.10948     0.03550     0.03430
 Rotational constants (GHZ):           2.28112     0.73963     0.71469
   14 imaginary frequencies ignored.
 Zero-point vibrational energy     360798.4 (Joules/Mol)
                                   86.23290 (Kcal/Mol)
 Warning -- explicit consideration of   8 degrees of freedom as
           vibrations may cause significant error
 Vibrational temperatures:    111.81   158.47   366.77   414.91   537.80
          (Kelvin)            685.50   729.66   761.51   904.67  1003.45
                             1072.82  1126.61  1169.31  1204.99  1237.01
                             1373.37  1457.50  1534.72  1658.81  1762.66
                             1996.11  2072.54  2119.14  2223.05  2418.73
                             2544.43  2610.12  6272.56  7213.54  7223.21
                             7236.21  7258.76  7264.81  9062.62

 Zero-point correction=                           0.137421 (Hartree/Particle)
 Thermal correction to Energy=                    0.144477
 Thermal correction to Enthalpy=                  0.145421
 Thermal correction to Gibbs Free Energy=         0.104331
 Sum of electronic and zero-point Energies=           -533.495516
 Sum of electronic and thermal Energies=              -533.488461
 Sum of electronic and thermal Enthalpies=            -533.487517
 Sum of electronic and thermal Free Energies=         -533.528606

                     E (Thermal)             CV                S
                      KCal/Mol        Cal/Mol-Kelvin    Cal/Mol-Kelvin
 Total                   90.660             25.541             86.481
 Electronic               0.000              0.000              0.000
 Translational            0.889              2.981             40.947
 Rotational               0.889              2.981             29.968
 Vibrational             88.883             19.580             15.566
 Vibration     1          0.599              1.964              3.948
 Vibration     2          0.606              1.941              3.266
 Vibration     3          0.665              1.754              1.696
 Vibration     4          0.685              1.695              1.483
 Vibration     5          0.745              1.526              1.064
 Vibration     6          0.833              1.302              0.720
 Vibration     7          0.862              1.234              0.641
 Vibration     8          0.884              1.185              0.589

 Normal termination of Gaussian 16 at Mon Mar  6 10:33:34 2023.
