 Gaussian 16, Revision C.01,
 Gaussian 16:  ES64L-G16RevC.01  3-Jul-2019

 ----------------------------------------------------------------------
 #p pop=(regular,nbo,savenbos) freq=noraman def2svp empiricaldispersion
 =gd3bj output=wfx pbe1pbe
 ----------------------------------------------------------------------

 ----------------------------------------
 WEGDIV_Complex_0_Ligand_0_ON_Cu_oriented
 ----------------------------------------
 Symbolic Z-matrix:
 Charge = -1 Multiplicity = 1

                         Standard orientation:
 ---------------------------------------------------------------------
 Center     Atomic      Atomic             Coordinates (Angstroms)
 Number     Number       Type             X           Y           Z
 ---------------------------------------------------------------------
      1          8           0       -0.647593   -3.146633    1.471537
      2          7           0        0.459403   -0.111610    0.059685
      3          6           0       -0.224498   -2.003943    1.436415
      4          6           0       -0.707494   -1.011928    0.369778
      5          6           0       -1.380453   -1.671949   -0.835337
      6          6           0        0.101942    1.137063   -0.713284
      7          6           0       -1.038158    1.967391   -0.186932
      8          6           0       -0.817220    3.091442    0.596043
      9          6           0       -1.865108    3.902592    0.994064
     10          6           0       -3.155655    3.605063    0.610388
     11          6           0       -3.392399    2.507684   -0.181142
     12          6           0       -2.343488    1.707121   -0.575969
     13          1           0       -1.340037   -0.472150    0.809772
     14          1           0       -1.488022   -1.007306   -1.523758
     15          1           0       -0.803980   -2.307854   -1.178439
     16          1           0        0.881525    1.623339   -0.692498
     17          1           0       -0.056467    0.904680   -1.604544
     18          1           0        0.051916    3.308848    0.772955
     19          1           0       -1.688864    4.674343    1.525114
     20          1           0       -3.852823    4.143216    0.879607
     21          1           0       -4.290270    2.289454   -0.475665
     22          1           0       -2.489114    1.004937   -1.098412
     23          6           0        1.486586   -0.858308   -0.751899
     24          6           0        2.885615   -0.325446   -0.565755
     25          6           0        3.389561    0.723666   -1.321610
     26          6           0        4.644834    1.221957   -1.051203
     27          6           0        5.426578    0.676691   -0.066809
     28          6           0        4.957457   -0.382927    0.657235
     29          6           0        3.695298   -0.882217    0.404709
     30          1           0        1.473268   -1.748443   -0.499766
     31          1           0        1.247800   -0.767227   -1.670346
     32          1           0        2.855686    1.018393   -2.000034
     33          1           0        4.928304    1.915055   -1.528527
     34          1           0        6.332864    1.056162    0.092314
     35          1           0        5.463168   -0.709484    1.331427
     36          1           0        3.403744   -1.604588    0.862703
     37          6           0       -2.733690   -2.352234   -0.553567
     38          6           0       -3.421327   -2.674077   -1.871994
     39          1           0       -2.572095   -3.213202   -0.057703
     40          1           0       -4.201079   -3.146002   -1.671714
     41          1           0       -3.716503   -1.912731   -2.251966
     42          1           0       -2.740028   -3.202651   -2.478652
     43          6           0       -3.646059   -1.619800    0.369222
     44          1           0       -3.290004   -1.331937    1.155973
     45          1           0       -3.913904   -0.704161   -0.200914
     46          8           0        0.639667   -1.543158    2.282134
     47          1           0       -4.521435   -2.058139    0.481799
 ---------------------------------------------------------------------

 SCF Done:  E(RPBE1PBE) =  -979.442234942     A.U. after   17 cycles

 The electronic state is 1-A.
 Alpha  occ. eigenvalues --  -18.94776 -18.92228 -14.24592 -10.13833 -10.12910
 Alpha  occ. eigenvalues --  -10.12872 -10.12519 -10.12402 -10.12130 -10.11955
 Alpha  occ. eigenvalues --  -10.11502 -10.11374 -10.11210 -10.11038 -10.10891
 Alpha  occ. eigenvalues --  -10.10545 -10.10298 -10.10134 -10.08737 -10.08031
 Alpha  occ. eigenvalues --  -10.07242 -10.07149 -10.05785  -0.84161  -0.80788
 Alpha  occ. eigenvalues --   -0.78967  -0.77800  -0.72559  -0.72152  -0.70256
 Alpha  occ. eigenvalues --   -0.68617  -0.68221  -0.67980  -0.64044  -0.61871
 Alpha  occ. eigenvalues --   -0.61563  -0.57819  -0.55512  -0.55200  -0.53437
 Alpha  occ. eigenvalues --   -0.52059  -0.49706  -0.47292  -0.47040  -0.45396
 Alpha  occ. eigenvalues --   -0.41150  -0.40858  -0.40224  -0.39133  -0.38424
 Alpha  occ. eigenvalues --   -0.36809  -0.36563  -0.36070  -0.35575  -0.35349
 Alpha  occ. eigenvalues --   -0.34840  -0.33596  -0.32716  -0.32259  -0.31426
 Alpha  occ. eigenvalues --   -0.29800  -0.29316  -0.28318  -0.28272  -0.27985
 Alpha  occ. eigenvalues --   -0.27103  -0.26759  -0.26478  -0.25274  -0.24172
 Alpha  occ. eigenvalues --   -0.23269  -0.22730  -0.21972  -0.20111  -0.19388
 Alpha  occ. eigenvalues --   -0.18570  -0.17372  -0.16743  -0.16505  -0.15515
 Alpha  occ. eigenvalues --   -0.08765  -0.05059  -0.04525  -0.01920
 Alpha virt. eigenvalues --    0.08904   0.09171   0.09994   0.10514   0.17121
 Alpha virt. eigenvalues --    0.18766   0.19109   0.19975   0.21089   0.22289
 Alpha virt. eigenvalues --    0.22524   0.23252   0.24175   0.24282   0.24610

 Mulliken charges:
               1
     1  O   -0.372273
     2  N   -0.444616
     3  C    0.113500
     4  C    0.028565
     5  C    0.267652
     6  C    0.513849
     7  C   -0.120954
     8  C    0.119561
     9  C    0.079974
    10  C    0.098635
    11  C    0.074450
    12  C    0.160700
    13  H   -0.055659
    14  H   -0.098333
    15  H   -0.084607
    16  H   -0.113109
    17  H   -0.100945
    18  H   -0.133451
    19  H   -0.091004
    20  H   -0.121757
    21  H   -0.078425
    22  H   -0.190792
    23  C    0.473448
    24  C   -0.125975
    25  C    0.111396
    26  C    0.134719
    27  C    0.043202
    28  C    0.114901
    29  C    0.168929
    30  H   -0.057630
    31  H   -0.099111
    32  H   -0.151925
    33  H   -0.161584
    34  H   -0.067072
    35  H   -0.134869
    36  H   -0.135226
    37  C   -0.198411
    38  C    0.222166
    39  H    0.002404
    40  H   -0.069780
    41  H   -0.094189
    42  H    0.002734
    43  C    0.153521
    44  H   -0.033381
    45  H   -0.033558
    46  O   -0.472862
    47  H   -0.042811
 Sum of Mulliken charges =  -1.00000

 Dipole moment (field-independent basis, Debye):
    X=             -0.7216    Y=              8.2197    Z=             -7.7281  Tot=             11.3052
 Quadrupole moment (field-independent basis, Debye-Ang):
   XX=           -150.3063   YY=           -167.0297   ZZ=           -158.0836
   XY=             -2.3696   XZ=             -1.8410   YZ=             17.0342

  Exact polarizability:     253.064       4.395     200.473      12.224       4.185     154.839
 Approx polarizability:     339.242      13.223     294.013      27.527       3.201     251.733

 Summary of Natural Population Analysis:

                                       Natural Population
                Natural  -----------------------------------------------
    Atom  No    Charge         Core      Valence    Rydberg      Total
 -----------------------------------------------------------------------
      O    1   -0.77098      1.99972     6.76091    0.01035     8.77098
      N    2   -0.50988      1.99945     5.49482    0.01560     7.50988
      C    3    0.78119      1.99942     3.14472    0.07467     5.21881
      C    4   -0.09529      1.99882     4.07138    0.02508     6.09529
      C    5   -0.38527      1.99894     4.36661    0.01972     6.38527
      C    6   -0.15203      1.99877     4.13418    0.01908     6.15203
      C    7   -0.00248      1.99904     3.98726    0.01618     6.00248
      C    8   -0.15451      1.99896     4.14026    0.01529     6.15451
      C    9   -0.18258      1.99913     4.16947    0.01398     6.18258
      C   10   -0.18603      1.99908     4.17261    0.01434     6.18603
      C   11   -0.18487      1.99913     4.17175    0.01399     6.18487
      C   12   -0.15040      1.99891     4.13631    0.01518     6.15040
      H   13    0.17349      0.00000     0.82113    0.00538     0.82651
      H   14    0.16171      0.00000     0.83373    0.00456     0.83829
      H   15    0.17656      0.00000     0.81816    0.00528     0.82344
      H   16    0.17024      0.00000     0.82552    0.00425     0.82976
      H   17    0.14789      0.00000     0.84526    0.00685     0.85211
      H   18    0.16335      0.00000     0.83349    0.00317     0.83665
      H   19    0.17218      0.00000     0.82470    0.00312     0.82782
      H   20    0.15830      0.00000     0.83852    0.00318     0.84170
      H   21    0.18031      0.00000     0.81652    0.00317     0.81969
      H   22    0.15177      0.00000     0.84416    0.00407     0.84823
      C   23   -0.15414      1.99885     4.13374    0.02155     6.15414
      C   24    0.00398      1.99906     3.98030    0.01666     5.99602
      C   25   -0.18449      1.99897     4.17087    0.01465     6.18449
      C   26   -0.16588      1.99903     4.15188    0.01498     6.16588
      C   27   -0.21529      1.99914     4.20218    0.01397     6.21529
      C   28   -0.16079      1.99906     4.14707    0.01466     6.16079
      C   29   -0.12284      1.99895     4.10703    0.01686     6.12284
      H   30    0.18864      0.00000     0.80765    0.00371     0.81136
      H   31    0.14989      0.00000     0.84378    0.00633     0.85011
      H   32    0.15711      0.00000     0.83941    0.00348     0.84289
      H   33    0.14257      0.00000     0.85414    0.00329     0.85743
      H   34    0.18230      0.00000     0.81446    0.00324     0.81770
      H   35    0.15332      0.00000     0.84348    0.00320     0.84668
      H   36    0.17047      0.00000     0.82370    0.00583     0.82953
      C   37   -0.17791      1.99911     4.16531    0.01349     6.17791
      C   38   -0.54265      1.99899     4.53246    0.01120     6.54265
      H   39    0.21530      0.00000     0.77569    0.00902     0.78470
      H   40    0.17074      0.00000     0.82590    0.00336     0.82926
      H   41    0.15226      0.00000     0.84368    0.00405     0.84774
      H   42    0.19502      0.00000     0.80231    0.00267     0.80498
      C   43   -0.54759      1.99912     4.53714    0.01133     6.54759
      H   44    0.17595      0.00000     0.82068    0.00338     0.82405
      H   45    0.17187      0.00000     0.82401    0.00412     0.82813
      O   46   -0.80415      1.99978     6.79621    0.00816     8.80415
      H   47    0.18365      0.00000     0.81343    0.00292     0.81635
 =======================================================================
   * Total *   -1.00000     45.97944   121.50796    0.51260   168.00000

 ******   39 imaginary frequencies (negative Signs) ******

                      1                      2                      3
                      A                      A                      A
 Frequencies --  -1778.6943             -1756.0276             -1673.3251
 Red. masses --      1.0661                 1.0569                 1.0273
 Frc consts  --      1.9872                 1.9202                 1.6947
 IR Inten    --     38.4247                22.0521                 5.6878

                      4                      5                      6
                      A                      A                      A
 Frequencies --  -1654.2253             -1513.3872             -1512.4520
 Red. masses --      1.0616                 1.0380                 1.0591
 Frc consts  --      1.7115                 1.4007                 1.4274
 IR Inten    --     27.4476                 1.7141                24.8260

                      7                      8                      9
                      A                      A                      A
 Frequencies --  -1502.1924             -1490.9403             -1456.2309
 Red. masses --      1.0331                 1.0491                 1.0253
 Frc consts  --      1.3736                 1.3740                 1.2811
 IR Inten    --      4.7228                 5.7180                 0.3624

                     10                     11                     12
                      A                      A                      A
 Frequencies --  -1454.4014             -1433.8697             -1395.7810
 Red. masses --      1.0521                 1.0505                 1.0308
 Frc consts  --      1.3112                 1.2726                 1.1832
 IR Inten    --      5.1962                14.9066                 6.3667

                     13                     14                     15
                      A                      A                      A
 Frequencies --  -1375.1245             -1354.0087             -1350.3309
 Red. masses --      1.0654                 1.0563                 1.0235
 Frc consts  --      1.1870                 1.1410                 1.0995
 IR Inten    --      4.0832                 7.3118                 0.5671

                     16                     17                     18
                      A                      A                      A
 Frequencies --  -1341.5675             -1219.5730             -1114.1166
 Red. masses --      1.0470                 1.0786                 1.0664
 Frc consts  --      1.1102                 0.9452                 0.7799
 IR Inten    --      3.7206                 4.1025                 2.7353

                     19                     20                     21
                      A                      A                      A
 Frequencies --  -1104.6231             -1061.1362             -1051.8850
 Red. masses --      1.0511                 1.0666                 1.0505
 Frc consts  --      0.7557                 0.7076                 0.6848
 IR Inten    --      7.6081                 5.3905                18.2417

                     22                     23                     24
                      A                      A                      A
 Frequencies --  -1049.5927             -1048.8392             -1009.5748
 Red. masses --      1.0842                 1.0327                 1.1554
 Frc consts  --      0.7038                 0.6694                 0.6939
 IR Inten    --      0.8485                 4.3711                 1.9076

                     25                     26                     27
                      A                      A                      A
 Frequencies --   -972.6422              -919.0807              -903.9666
 Red. masses --      1.0931                 1.1339                 1.1227
 Frc consts  --      0.6093                 0.5643                 0.5405
 IR Inten    --      7.1908                11.8058                 0.9095

                     28                     29                     30
                      A                      A                      A
 Frequencies --   -873.2004              -847.7590              -714.3235
 Red. masses --      1.0264                 1.1504                 1.1537
 Frc consts  --      0.4611                 0.4871                 0.3469
 IR Inten    --      9.2270                11.6561                12.1680

                     31                     32                     33
                      A                      A                      A
 Frequencies --   -677.6439              -596.1870              -542.9056
 Red. masses --      1.0875                 1.0398                 1.3080
 Frc consts  --      0.2942                 0.2177                 0.2271
 IR Inten    --      3.4031                10.2123                 8.1321

                     34                     35                     36
                      A                      A                      A
 Frequencies --   -521.3174              -493.0418              -371.6629
 Red. masses --      1.1998                 1.2237                 1.1345
 Frc consts  --      0.1921                 0.1753                 0.0923
 IR Inten    --      4.0733                10.4295                13.6513

                     37                     38                     39
                      A                      A                      A
 Frequencies --   -148.3089              -137.2382               -97.1225
 Red. masses --      2.9135                11.8368                 1.6986
 Frc consts  --      0.0378                 0.1314                 0.0094
 IR Inten    --      1.9489                 0.7154                 6.3930

                     40                     41                     42
                      A                      A                      A
 Frequencies --     94.0498               118.6492               131.7587
 Red. masses --      4.1971                 8.1489                 6.1148
 Frc consts  --      0.0219                 0.0676                 0.0625
 IR Inten    --      5.4562                11.8291                10.6760

                     43                     44                     45
                      A                      A                      A
 Frequencies --    144.8228               162.0679               171.7567
 Red. masses --      4.3148                 7.8182                 4.9888
 Frc consts  --      0.0533                 0.1210                 0.0867
 IR Inten    --      1.7708                 1.7738                 5.6436

                     46                     47                     48
                      A                      A                      A
 Frequencies --    196.8339               206.4376               241.3686
 Red. masses --      8.1100                 5.0361                 5.0165
 Frc consts  --      0.1851                 0.1265                 0.1722
 IR Inten    --      0.2727                 0.9032                 1.9904

                     49                     50                     51
                      A                      A                      A
 Frequencies --    269.0401               298.4356               319.0073
 Red. masses --      6.0670                 5.5588                 6.1218
 Frc consts  --      0.2587                 0.2917                 0.3671
 IR Inten    --      0.8252                 1.3992                 0.8238

                     52                     53                     54
                      A                      A                      A
 Frequencies --    394.6539               418.2604               440.2264
 Red. masses --      5.2785                 1.9180                 3.8941
 Frc consts  --      0.4844                 0.1977                 0.4446
 IR Inten    --      0.7663                 2.3858                 5.4341

                     55                     56                     57
                      A                      A                      A
 Frequencies --    460.4333               476.8374               509.8560
 Red. masses --      3.8414                 2.6565                 3.8244
 Frc consts  --      0.4798                 0.3559                 0.5857
 IR Inten    --      6.1943                 4.0092                 4.2735

                     58                     59                     60
                      A                      A                      A
 Frequencies --    520.0904               542.6964               567.3098
 Red. masses --      9.0096                10.5441                 3.2377
 Frc consts  --      1.4359                 1.8297                 0.6139
 IR Inten    --      0.3758                 0.1114                 7.7907

                     61                     62                     63
                      A                      A                      A
 Frequencies --    579.6664               592.6973               615.5930
 Red. masses --      3.2187                 3.9289                 2.4080
 Frc consts  --      0.6372                 0.8132                 0.5376
 IR Inten    --      3.4298                 1.9074                 1.4815

                     64                     65                     66
                      A                      A                      A
 Frequencies --    638.1097               675.6760               688.3345
 Red. masses --      4.5238                 3.4347                 3.6445
 Frc consts  --      1.0853                 0.9239                 1.0174
 IR Inten    --      2.3046                 0.7790                 2.7451

                     67                     68                     69
                      A                      A                      A
 Frequencies --    701.3200               703.8552               717.0212
 Red. masses --      3.4811                 1.4343                 4.2926
 Frc consts  --      1.0088                 0.4187                 1.3003
 IR Inten    --      8.5785                 8.6524                 0.6752

                     70                     71                     72
                      A                      A                      A
 Frequencies --    735.3897               755.0083               776.5280
 Red. masses --      3.7032                 4.2430                 2.2116
 Frc consts  --      1.1799                 1.4250                 0.7857
 IR Inten    --      4.3810                 2.9835                 2.9823

                     73                     74                     75
                      A                      A                      A
 Frequencies --    781.4847               812.9562               826.0086
 Red. masses --      3.1243                 6.0611                 5.5779
 Frc consts  --      1.1242                 2.3601                 2.2423
 IR Inten    --      0.9942                27.0274                 9.2448

                     76                     77                     78
                      A                      A                      A
 Frequencies --    836.2319               848.9368               861.4802
 Red. masses --      2.4416                 4.0106                 4.7227
 Frc consts  --      1.0060                 1.7030                 2.0650
 IR Inten    --      3.9802                16.1168                12.7606

                     79                     80                     81
                      A                      A                      A
 Frequencies --    880.4547               915.5864               917.1784
 Red. masses --      1.6315                 2.5431                 4.5162
 Frc consts  --      0.7452                 1.2561                 2.2384
 IR Inten    --      4.1551                 5.9217                21.7746

                     82                     83                     84
                      A                      A                      A
 Frequencies --    922.9380               944.2586              1019.6279
 Red. masses --      2.9062                 2.4360                 2.8575
 Frc consts  --      1.4585                 1.2797                 1.7503
 IR Inten    --      1.4329                10.4461                 5.1140

                     85                     86                     87
                      A                      A                      A
 Frequencies --   1033.5113              1045.5299              1061.4325
 Red. masses --      2.2730                 1.7509                 6.3617
 Frc consts  --      1.4305                 1.1277                 4.2229
 IR Inten    --      2.0316                 6.8467                 0.2374

                     88                     89                     90
                      A                      A                      A
 Frequencies --   1062.5325              1109.1233              1119.1854
 Red. masses --      6.3137                 5.4457                 1.8134
 Frc consts  --      4.1997                 3.9469                 1.3383
 IR Inten    --      0.2699                 7.9600                 6.2901

                     91                     92                     93
                      A                      A                      A
 Frequencies --   1141.3078              1172.4382              1208.8686
 Red. masses --      4.1281                 5.5404                 1.0976
 Frc consts  --      3.1681                 4.4871                 0.9450
 IR Inten    --      3.5670                38.4189                16.2592

                     94                     95                     96
                      A                      A                      A
 Frequencies --   1224.4976              1225.6800              1228.5960
 Red. masses --      4.8427                 6.7414                 6.7010
 Frc consts  --      4.2781                 5.9670                 5.9595
 IR Inten    --     19.6527                 2.4560                 4.3541

                     97                     98                     99
                      A                      A                      A
 Frequencies --   1314.7643              1366.1749              1367.0538
 Red. masses --      3.1075                 1.6280                 3.3266
 Frc consts  --      3.1649                 1.7903                 3.6629
 IR Inten    --      7.4006                64.2204               159.0303

                    100                    101                    102
                      A                      A                      A
 Frequencies --   1401.2918              1404.5545              1415.9285
 Red. masses --      8.0591                 1.0775                 6.8836
 Frc consts  --      9.3238                 1.2524                 8.1311
 IR Inten    --      0.2432                 8.0524                 0.0737

                    103                    104                    105
                      A                      A                      A
 Frequencies --   1453.3846              1459.1540              1468.4780
 Red. masses --      8.3767                 9.2364                 9.0527
 Frc consts  --     10.4251                11.5866                11.5017
 IR Inten    --      0.8829                 2.1682                 5.5398

                    106                    107                    108
                      A                      A                      A
 Frequencies --   1495.0401              1683.5159              1683.9053
 Red. masses --      8.2281                10.1645                10.0489
 Frc consts  --     10.8356                16.9735                16.7882
 IR Inten    --      1.5338                 6.7806                 4.1381

                    109                    110                    111
                      A                      A                      A
 Frequencies --   1695.6470              1729.4970              1827.9870
 Red. masses --      9.9190                 9.7075                12.8442
 Frc consts  --     16.8030                17.1079                25.2873
 IR Inten    --      2.8601                 0.5441               465.6772

                    112                    113                    114
                      A                      A                      A
 Frequencies --   2975.0810              3531.9054              4056.7052
 Red. masses --      1.0671                 1.0701                 1.0870
 Frc consts  --      5.5647                 7.8650                10.5394
 IR Inten    --     67.8256                19.7638                 3.3237

                    115                    116                    117
                      A                      A                      A
 Frequencies --   4208.6049              4287.9509              4517.0450
 Red. masses --      1.0905                 1.0770                 1.0900
 Frc consts  --     11.3800                11.6674                13.1032
 IR Inten    --     12.1361                26.9092                 4.2351

                    118                    119                    120
                      A                      A                      A
 Frequencies --   4542.3746              4645.9262              4725.4254
 Red. masses --      1.0771                 1.0728                 1.0895
 Frc consts  --     13.0934                13.6436                14.3342
 IR Inten    --     28.9447                33.8163                 4.1784

                    121                    122                    123
                      A                      A                      A
 Frequencies --   4867.5611              4891.7311              4943.8164
 Red. masses --      1.0862                 1.0709                 1.0801
 Frc consts  --     15.1634                15.0987                15.5534
 IR Inten    --      4.9547                25.0323                17.8807

                    124                    125                    126
                      A                      A                      A
 Frequencies --   5085.2126              5090.9246              5155.5958
 Red. masses --      1.0891                 1.0947                 1.0894
 Frc consts  --     16.5938                16.7159                17.0603
 IR Inten    --      6.3404                 0.1191                 1.5989

                    127                    128                    129
                      A                      A                      A
 Frequencies --   5164.8895              5266.5326              5276.1830
 Red. masses --      1.0966                 1.0891                 1.0889
 Frc consts  --     17.2355                17.7978                17.8600
 IR Inten    --      3.4583                 0.0874                 1.2236

                    130                    131                    132
                      A                      A                      A
 Frequencies --   5303.9161              5397.7451              5410.2568
 Red. masses --      1.0895                 1.0880                 1.0904
 Frc consts  --     18.0586                18.6767                18.8058
 IR Inten    --      0.1717                 1.6300                 2.4505

                    133                    134                    135
                      A                      A                      A
 Frequencies --   5419.4445              5630.6498              5644.4022
 Red. masses --      1.0891                 1.0888                 1.0885
 Frc consts  --     18.8465                20.3375                20.4327
 IR Inten    --      7.0717                 1.7493                 0.1185

 - Thermochemistry -
 -------------------
 Temperature   298.150 Kelvin.  Pressure   1.00000 Atm.
 Atom     1 has atomic number  8 and mass  15.99491

 Molecular mass:   310.18070 amu.
 Principal axes and moments of inertia in atomic units:
                           1         2         3
     Eigenvalues --  5693.162279784.26279**********
           X            0.99966   0.02523   0.00642
           Y           -0.02538   0.99939   0.02397
           Z           -0.00581  -0.02413   0.99969
 This molecule is an asymmetric top.
 Rotational symmetry number  1.
 Warning -- assumption of classical behavior for rotation
           may cause significant error
 Rotational temperatures (Kelvin)      0.01521     0.00885     0.00658
 Rotational constants (GHZ):           0.31700     0.18445     0.13703
   39 imaginary frequencies ignored.
 Zero-point vibrational energy    1063898.2 (Joules/Mol)
                                  254.27778 (Kcal/Mol)
 Warning -- explicit consideration of  24 degrees of freedom as
           vibrations may cause significant error
 Vibrational temperatures:    135.32   170.71   189.57   208.37   233.18
          (Kelvin)            247.12   283.20   297.02   347.28   387.09
                              429.38   458.98   567.82   601.78   633.39
                              662.46   686.06   733.57   748.29   780.82
                              816.23   834.01   852.76   885.70   918.10
                              972.15   990.36  1009.04  1012.69  1031.63
                             1058.06  1086.29  1117.25  1124.38  1169.66
                             1188.44  1203.15  1221.43  1239.48  1266.78
                             1317.32  1319.62  1327.90  1358.58  1467.02
                             1486.99  1504.28  1527.16  1528.75  1595.78
                             1610.26  1642.09  1686.88  1739.29  1761.78
                             1763.48  1767.68  1891.65  1965.62  1966.89
                             2016.15  2020.84  2037.21  2091.10  2099.40
                             2112.81  2151.03  2422.20  2422.76  2439.66
                             2488.36  2630.07  4280.48  5081.62  5836.69
                             6055.24  6169.40  6499.02  6535.46  6684.45
                             6798.83  7003.33  7038.11  7113.05  7316.49
                             7324.71  7417.75  7431.12  7577.37  7591.25
                             7631.15  7766.15  7784.15  7797.37  8101.25
                             8121.04

 Zero-point correction=                           0.405217 (Hartree/Particle)
 Thermal correction to Energy=                    0.419663
 Thermal correction to Enthalpy=                  0.420607
 Thermal correction to Gibbs Free Energy=         0.364067
 Sum of electronic and zero-point Energies=           -979.037018
 Sum of electronic and thermal Energies=              -979.022572
 Sum of electronic and thermal Enthalpies=            -979.021628
 Sum of electronic and thermal Free Energies=         -979.078168

                     E (Thermal)             CV                S
                      KCal/Mol        Cal/Mol-Kelvin    Cal/Mol-Kelvin
 Total                  263.342             60.651            118.999
 Electronic               0.000              0.000              0.000
 Translational            0.889              2.981             43.092
 Rotational               0.889              2.981             34.949
 Vibrational            261.565             54.689             40.957
 Vibration     1          0.603              1.953              3.574
 Vibration     2          0.609              1.934              3.122
 Vibration     3          0.612              1.922              2.920
 Vibration     4          0.616              1.908              2.739
 Vibration     5          0.622              1.889              2.526
 Vibration     6          0.626              1.877              2.416
 Vibration     7          0.636              1.844              2.162
 Vibration     8          0.641              1.831              2.075
 Vibration     9          0.658              1.777              1.793
 Vibration    10          0.673              1.730              1.602
 Vibration    11          0.692              1.677              1.426
 Vibration    12          0.705              1.637              1.315
 Vibration    13          0.762              1.482              0.983
 Vibration    14          0.781              1.431              0.898
 Vibration    15          0.800              1.382              0.826
 Vibration    16          0.818              1.338              0.765
 Vibration    17          0.833              1.301              0.719
 Vibration    18          0.865              1.228              0.634
 Vibration    19          0.875              1.206              0.610
 Vibration    20          0.898              1.156              0.560
 Vibration    21          0.923              1.102              0.509
 Vibration    22          0.936              1.075              0.486
 Vibration    23          0.950              1.047              0.462
 Vibration    24          0.975              0.999              0.424

 Normal termination of Gaussian 16 at Mon Mar  6 12:52:11 2023.
