 Gaussian 16, Revision C.01,
 Gaussian 16:  ES64L-G16RevC.01  3-Jul-2019

 ----------------------------------------------------------------------
 #p pop=(regular,nbo,savenbos) freq=noraman def2svp empiricaldispersion
 =gd3bj output=wfx pbe1pbe
 ----------------------------------------------------------------------

 ----------------------------------------
 WIMMIO_Complex_3_Ligand_2_OO_Cu_oriented
 ----------------------------------------
 Symbolic Z-matrix:
 Charge = -2 Multiplicity = 1

                         Standard orientation:
 ---------------------------------------------------------------------
 Center     Atomic      Atomic             Coordinates (Angstroms)
 Number     Number       Type             X           Y           Z
 ---------------------------------------------------------------------
      1          8           0       -2.145048    1.697750   -0.276643
      2          8           0       -2.787651   -1.277734    0.345085
      3          8           0        0.740397   -1.250200   -0.406002
      4          6           0        0.136926    1.061101   -0.217562
      5          6           0       -1.286656    0.670128    0.180759
      6          6           0       -1.644861   -0.732689   -0.300993
      7          6           0       -0.522732   -1.672654    0.088151
      8          1           0       -3.405635   -0.958601    0.082568
      9          1           0        0.140722    1.184139   -1.183479
     10          1           0       -1.315290    0.710318    1.178066
     11          1           0       -1.835440   -0.713217   -1.188441
     12          1           0       -0.563233   -1.705105    1.052857
     13          1           0       -0.772467   -2.633280   -0.273001
     14          8           0        2.392256    0.311197   -0.299427
     15          6           0        1.127914   -0.014319    0.187124
     16          6           0        3.389206   -0.601250    0.164166
     17          1           0        1.148455   -0.128012    1.155850
     18          1           0        3.185817   -1.451727   -0.296735
     19          1           0        4.131087   -0.213303    0.001865
     20          1           0        3.277839   -0.713400    1.244519
     21          8           0        0.401216    2.314023    0.338997
 ---------------------------------------------------------------------

 SCF Done:  E(RPBE1PBE) =  -609.151870796     A.U. after   21 cycles

 The electronic state is 1-A.
 Alpha  occ. eigenvalues --  -18.92230 -18.91099 -18.88254 -18.68283 -18.66856
 Alpha  occ. eigenvalues --   -9.99283  -9.97286  -9.96640  -9.92159  -9.84743
 Alpha  occ. eigenvalues --   -9.84092  -0.79368  -0.78879  -0.73064  -0.52982
 Alpha  occ. eigenvalues --   -0.50835  -0.47371  -0.45999  -0.38679  -0.33721
 Alpha  occ. eigenvalues --   -0.30182  -0.26201  -0.25877  -0.25287  -0.21621
 Alpha  occ. eigenvalues --   -0.19618  -0.18603  -0.16802  -0.15306  -0.10096
 Alpha  occ. eigenvalues --   -0.09164  -0.06773  -0.05543  -0.04241  -0.00857
 Alpha  occ. eigenvalues --   -0.00173   0.01035   0.01946   0.06741   0.08479
 Alpha  occ. eigenvalues --    0.20216   0.20524   0.22446   0.23125
 Alpha virt. eigenvalues --    0.32022   0.35722   0.36957   0.38145   0.39289
 Alpha virt. eigenvalues --    0.39803   0.40997   0.44046   0.47213   0.47851
 Alpha virt. eigenvalues --    0.49516   0.50335   0.53085   0.56385   0.57959

 Mulliken charges:
               1
     1  O   -0.728037
     2  O   -0.233206
     3  O   -0.465474
     4  C    0.277972
     5  C    0.225780
     6  C    0.222106
     7  C    0.328532
     8  H   -0.038713
     9  H   -0.202579
    10  H   -0.202379
    11  H   -0.198837
    12  H   -0.105915
    13  H   -0.090576
    14  O   -0.405778
    15  C    0.369086
    16  C    0.387725
    17  H   -0.168312
    18  H   -0.043908
    19  H   -0.136374
    20  H   -0.055053
    21  O   -0.736058
 Sum of Mulliken charges =  -2.00000

 Dipole moment (field-independent basis, Debye):
    X=              5.4531    Y=            -11.6715    Z=              0.1076  Tot=             12.8830
 Quadrupole moment (field-independent basis, Debye-Ang):
   XX=            -96.1624   YY=           -108.5234   ZZ=            -72.3849
   XY=              5.4419   XZ=              1.9355   YZ=             -0.8418

  Exact polarizability:     109.496      -2.087      91.611       5.628      -2.102      72.033
 Approx polarizability:     130.641      -6.167     141.506       4.942      -4.339     102.528

 Summary of Natural Population Analysis:

                                       Natural Population
                Natural  -----------------------------------------------
    Atom  No    Charge         Core      Valence    Rydberg      Total
 -----------------------------------------------------------------------
      O    1   -0.98569      1.99987     6.97806    0.00776     8.98569
      O    2   -0.73432      1.99956     6.70933    0.02543     8.73432
      O    3   -0.67422      1.99972     6.66335    0.01114     8.67422
      C    4    0.08457      1.99885     3.86953    0.04705     5.91543
      C    5    0.07656      1.99888     3.87799    0.04657     5.92344
      C    6    0.14243      1.99865     3.82747    0.03145     5.85757
      C    7   -0.04290      1.99887     4.02014    0.02390     6.04290
      H    8    0.36549      0.00000     0.61040    0.02411     0.63451
      H    9    0.11259      0.00000     0.86971    0.01769     0.88741
      H   10    0.10887      0.00000     0.87188    0.01925     0.89113
      H   11    0.08453      0.00000     0.88965    0.02582     0.91547
      H   12    0.13247      0.00000     0.85758    0.00995     0.86753
      H   13    0.14717      0.00000     0.84447    0.00836     0.85283
      O   14   -0.58614      1.99971     6.57443    0.01199     8.58614
      C   15    0.45037      1.99877     3.51193    0.03893     5.54963
      C   16   -0.15273      1.99880     4.13953    0.01440     6.15273
      H   17    0.08224      0.00000     0.89443    0.02333     0.91776
      H   18    0.15149      0.00000     0.84193    0.00658     0.84851
      H   19    0.09477      0.00000     0.90149    0.00374     0.90523
      H   20    0.13677      0.00000     0.85654    0.00668     0.86323
      O   21   -0.99433      1.99987     6.98602    0.00845     8.99433
 =======================================================================
   * Total *   -2.00000     21.99155    65.59586    0.41259    88.00000

 ******   13 imaginary frequencies (negative Signs) ******

                      1                      2                      3
                      A                      A                      A
 Frequencies --  -3191.3243             -2834.5776             -2034.4607
 Red. masses --      1.0683                 1.0725                 1.0554
 Frc consts  --      6.4107                 5.0770                 2.5736
 IR Inten    --    136.7624               172.4082                 2.7212

                      4                      5                      6
                      A                      A                      A
 Frequencies --  -1891.5710             -1379.5956             -1125.8898
 Red. masses --      1.1001                 1.0644                 1.1295
 Frc consts  --      2.3192                 1.1936                 0.8435
 IR Inten    --      0.1697                18.5407                14.2361

                      7                      8                      9
                      A                      A                      A
 Frequencies --   -857.6102              -751.4357              -655.5718
 Red. masses --      1.0878                 1.1216                 1.2764
 Frc consts  --      0.4714                 0.3731                 0.3232
 IR Inten    --      3.8401                 4.6179                32.8409

                     10                     11                     12
                      A                      A                      A
 Frequencies --   -532.0950              -496.6162              -361.2635
 Red. masses --      1.4405                 1.6234                 2.1279
 Frc consts  --      0.2403                 0.2359                 0.1636
 IR Inten    --      5.3103                10.1763                 4.8092

                     13                     14                     15
                      A                      A                      A
 Frequencies --   -119.7001               177.6065               227.0458
 Red. masses --      1.2790                 1.5914                 4.0387
 Frc consts  --      0.0108                 0.0296                 0.1227
 IR Inten    --      6.0005                 7.7430                 2.1607

                     16                     17                     18
                      A                      A                      A
 Frequencies --    301.7305               325.0208               371.3830
 Red. masses --      2.9320                 2.9757                 2.2065
 Frc consts  --      0.1573                 0.1852                 0.1793
 IR Inten    --      4.1994                 9.5135                12.2866

                     19                     20                     21
                      A                      A                      A
 Frequencies --    384.5913               397.1629               426.5118
 Red. masses --      4.4284                 6.4659                 4.2496
 Frc consts  --      0.3859                 0.6009                 0.4555
 IR Inten    --      4.6024                 3.6325                 0.9721

                     22                     23                     24
                      A                      A                      A
 Frequencies --    470.9428               551.1833               593.9211
 Red. masses --      3.5944                 3.3538                 3.4599
 Frc consts  --      0.4697                 0.6003                 0.7191
 IR Inten    --      2.0690                18.9561                 2.3909

                     25                     26                     27
                      A                      A                      A
 Frequencies --    615.6499               634.9736               668.7748
 Red. masses --      2.8242                 5.3815                 2.2439
 Frc consts  --      0.6307                 1.2784                 0.5913
 IR Inten    --      0.6391                21.8354                72.7209

                     28                     29                     30
                      A                      A                      A
 Frequencies --    769.4674               806.7641               817.7505
 Red. masses --      4.0036                 2.7949                 3.6571
 Frc consts  --      1.3966                 1.0718                 1.4409
 IR Inten    --     56.1428                 4.8123                36.7838

                     31                     32                     33
                      A                      A                      A
 Frequencies --    880.5637               901.1762               968.6399
 Red. masses --      4.4974                 3.3225                 1.9012
 Frc consts  --      2.0546                 1.5898                 1.0510
 IR Inten    --     36.1508                15.8172                28.4824

                     34                     35                     36
                      A                      A                      A
 Frequencies --   1032.2819              1054.4697              1077.2972
 Red. masses --      4.2171                 3.6248                 5.1301
 Frc consts  --      2.6476                 2.3746                 3.5079
 IR Inten    --     54.5252                43.0274                82.5858

                     37                     38                     39
                      A                      A                      A
 Frequencies --   1095.0666              1116.8011              1130.6739
 Red. masses --      3.8366                 6.6923                 4.8203
 Frc consts  --      2.7107                 4.9179                 3.6308
 IR Inten    --     26.2031               109.0513                71.7803

                     40                     41                     42
                      A                      A                      A
 Frequencies --   1146.2233              1163.3457              1173.2626
 Red. masses --      5.7747                 5.3761                 3.1112
 Frc consts  --      4.4701                 4.2868                 2.5233
 IR Inten    --      9.1398                25.6453                33.3783

                     43                     44                     45
                      A                      A                      A
 Frequencies --   1216.3671              1226.4062              1267.5273
 Red. masses --      5.4549                 4.1411                 1.2036
 Frc consts  --      4.7551                 3.6697                 1.1393
 IR Inten    --     95.9673                12.5565                 4.4151

                     46                     47                     48
                      A                      A                      A
 Frequencies --   1277.2436              1358.2791              3134.6084
 Red. masses --      1.2746                 1.0730                 1.0667
 Frc consts  --      1.2251                 1.1664                 6.1751
 IR Inten    --     10.5384                 3.8271               111.5972

                     49                     50                     51
                      A                      A                      A
 Frequencies --   3490.3283              4074.8746              4243.2362
 Red. masses --      1.0787                 1.0852                 1.0772
 Frc consts  --      7.7425                10.6165                11.4271
 IR Inten    --    168.7204               158.4293                29.0078

                     52                     53                     54
                      A                      A                      A
 Frequencies --   4381.4105              4392.7489              4521.1240
 Red. masses --      1.0859                 1.0862                 1.0863
 Frc consts  --     12.2818                12.3487                13.0831
 IR Inten    --    131.5285                83.8175                34.1974

                     55                     56                     57
                      A                      A                      A
 Frequencies --   5314.0654              6180.9001              8141.5185
 Red. masses --      1.0874                 1.0888                 1.0671
 Frc consts  --     18.0923                24.5070                41.6746
 IR Inten    --     28.2341                12.0842                28.5747

 - Thermochemistry -
 -------------------
 Temperature   298.150 Kelvin.  Pressure   1.00000 Atm.
 Atom     1 has atomic number  8 and mass  15.99491

 Molecular mass:   162.05282 amu.
 Principal axes and moments of inertia in atomic units:
                           1         2         3
     Eigenvalues --  1013.019332097.294332965.41166
           X            0.99996  -0.00432   0.00783
           Y            0.00437   0.99997  -0.00636
           Z           -0.00781   0.00640   0.99995
 This molecule is an asymmetric top.
 Rotational symmetry number  1.
 Warning -- assumption of classical behavior for rotation
           may cause significant error
 Rotational temperatures (Kelvin)      0.08550     0.04130     0.02921
 Rotational constants (GHZ):           1.78155     0.86051     0.60860
   13 imaginary frequencies ignored.
 Zero-point vibrational energy     451595.8 (Joules/Mol)
                                  107.93398 (Kcal/Mol)
 Warning -- explicit consideration of  12 degrees of freedom as
           vibrations may cause significant error
 Vibrational temperatures:    255.54   326.67   434.12   467.63   534.34
          (Kelvin)            553.34   571.43   613.66   677.58   793.03
                              854.52   885.78   913.59   962.22  1107.09
                             1160.75  1176.56  1266.93  1296.59  1393.66
                             1485.22  1517.15  1549.99  1575.56  1606.83
                             1626.79  1649.16  1673.79  1688.06  1750.08
                             1764.52  1823.69  1837.67  1954.26  4510.00
                             5021.80  5862.84  6105.07  6303.87  6320.19
                             6504.89  7645.75  8892.94 11713.83

 Zero-point correction=                           0.172004 (Hartree/Particle)
 Thermal correction to Energy=                    0.179713
 Thermal correction to Enthalpy=                  0.180657
 Thermal correction to Gibbs Free Energy=         0.139370
 Sum of electronic and zero-point Energies=           -608.979867
 Sum of electronic and thermal Energies=              -608.972158
 Sum of electronic and thermal Enthalpies=            -608.971214
 Sum of electronic and thermal Free Energies=         -609.012501

                     E (Thermal)             CV                S
                      KCal/Mol        Cal/Mol-Kelvin    Cal/Mol-Kelvin
 Total                  112.771             31.890             86.896
 Electronic               0.000              0.000              0.000
 Translational            0.889              2.981             41.157
 Rotational               0.889              2.981             30.222
 Vibrational            110.994             25.929             15.516
 Vibration     1          0.628              1.870              2.353
 Vibration     2          0.651              1.800              1.902
 Vibration     3          0.694              1.670              1.407
 Vibration     4          0.709              1.625              1.285
 Vibration     5          0.743              1.531              1.074
 Vibration     6          0.754              1.503              1.021
 Vibration     7          0.764              1.476              0.973
 Vibration     8          0.788              1.413              0.870
 Vibration     9          0.828              1.315              0.735
 Vibration    10          0.906              1.137              0.542
 Vibration    11          0.952              1.045              0.460
 Vibration    12          0.975              0.999              0.424

 Normal termination of Gaussian 16 at Mon Mar  6 10:37:51 2023.
