 Gaussian 16, Revision C.01,
 Gaussian 16:  ES64L-G16RevC.01  3-Jul-2019

 ----------------------------------------------------------------------
 #p pop=(regular,nbo,savenbos) freq=noraman def2svp empiricaldispersion
 =gd3bj output=wfx pbe1pbe
 ----------------------------------------------------------------------

 ----------------------------------------
 WUBSOB_Complex_9_Ligand_0_ON_Cu_oriented
 ----------------------------------------
 Symbolic Z-matrix:
 Charge = -1 Multiplicity = 1

                         Standard orientation:
 ---------------------------------------------------------------------
 Center     Atomic      Atomic             Coordinates (Angstroms)
 Number     Number       Type             X           Y           Z
 ---------------------------------------------------------------------
      1          8           0       -3.033722    2.432809    0.947917
      2          8           0       -4.868604    1.662172   -0.054726
      3          8           0       -2.308239   -1.803133    0.553273
      4          7           0       -1.465616    0.342793    0.200253
      5          6           0       -3.669462    1.573198    0.244000
      6          6           0       -2.892558    0.342552   -0.265553
      7          6           0       -3.489048   -1.004154    0.275294
      8          6           0       -4.406057   -1.737508   -0.688666
      9          6           0       -1.379184   -0.879335    1.088873
     10          6           0       -0.549708    0.163524   -1.005450
     11          1           0       -2.911158    0.332464   -1.245874
     12          1           0       -3.967090   -0.832188    1.110171
     13          1           0       -4.730337   -2.539304   -0.272658
     14          1           0       -3.918510   -1.964634   -1.484094
     15          1           0       -5.148305   -1.173491   -0.916231
     16          1           0       -0.482837   -1.249988    1.075277
     17          1           0       -1.609827   -0.653644    2.003824
     18          8           0        1.456169   -1.794522   -0.586166
     19          7           0        0.830486    0.383950   -0.683043
     20          6           0        1.737716   -0.593519   -0.478938
     21          6           0        3.141343   -0.130199   -0.170951
     22          6           0        3.676366    1.046926   -0.675635
     23          6           0        5.000311    1.412460   -0.398737
     24          6           0        5.773088    0.617037    0.382301
     25          6           0        5.271240   -0.529548    0.914200
     26          6           0        3.957606   -0.959827    0.596931
     27          1           0        3.149361    1.602228   -1.204860
     28          1           0        5.346210    2.200264   -0.749385
     29          1           0        6.655293    0.857366    0.554676
     30          1           0        5.795175   -1.035667    1.492940
     31          1           0        3.645758   -1.784913    0.896999
     32          1           0        1.098659    1.198223   -0.615799
     33          1           0       -0.816116    0.783565   -1.701290
     34          1           0       -0.655094   -0.735722   -1.352578
 ---------------------------------------------------------------------

 SCF Done:  E(RPBE1PBE) =  -912.921416121     A.U. after   18 cycles

 The electronic state is 1-A.
 Alpha  occ. eigenvalues --  -19.08303 -19.07611 -18.93981 -18.92514 -14.31391
 Alpha  occ. eigenvalues --  -14.24651 -10.24617 -10.17713 -10.16437 -10.16184
 Alpha  occ. eigenvalues --  -10.16043 -10.16036 -10.15676 -10.15423 -10.14228
 Alpha  occ. eigenvalues --  -10.13205 -10.10435 -10.08818 -10.06038  -0.96076
 Alpha  occ. eigenvalues --   -0.92867  -0.87083  -0.82801  -0.82412  -0.76786
 Alpha  occ. eigenvalues --   -0.72730  -0.72278  -0.71571  -0.67827  -0.63505
 Alpha  occ. eigenvalues --   -0.59510  -0.59050  -0.58048  -0.54042  -0.52153
 Alpha  occ. eigenvalues --   -0.50615  -0.48983  -0.46524  -0.42834  -0.41760
 Alpha  occ. eigenvalues --   -0.40225  -0.39426  -0.38848  -0.38566  -0.37575
 Alpha  occ. eigenvalues --   -0.35245  -0.34833  -0.33594  -0.32174  -0.31922
 Alpha  occ. eigenvalues --   -0.31172  -0.30849  -0.30703  -0.29318  -0.27649
 Alpha  occ. eigenvalues --   -0.26214  -0.24383  -0.23683  -0.21751  -0.21095
 Alpha  occ. eigenvalues --   -0.20461  -0.19234  -0.18138  -0.17785  -0.17110
 Alpha  occ. eigenvalues --   -0.14608  -0.10478  -0.04502  -0.04396  -0.02197
 Alpha virt. eigenvalues --    0.04317   0.05092   0.14130   0.15896   0.18031
 Alpha virt. eigenvalues --    0.19694   0.20968   0.21744   0.22897   0.23411
 Alpha virt. eigenvalues --    0.23750   0.24753   0.25624   0.26823   0.27438

 Mulliken charges:
               1
     1  O   -0.450646
     2  O   -0.425470
     3  O   -0.466850
     4  N   -0.444616
     5  C    0.145739
     6  C    0.022720
     7  C    0.112819
     8  C    0.247150
     9  C    0.496599
    10  C    0.416146
    11  H   -0.054870
    12  H   -0.042772
    13  H   -0.046683
    14  H   -0.048904
    15  H   -0.026707
    16  H   -0.052233
    17  H   -0.054095
    18  O   -0.311310
    19  N   -0.113990
    20  C    0.185788
    21  C   -0.034332
    22  C    0.083128
    23  C    0.099191
    24  C    0.103485
    25  C    0.093350
    26  C    0.111259
    27  H   -0.109734
    28  H   -0.101682
    29  H   -0.101355
    30  H   -0.096797
    31  H   -0.097084
    32  H    0.039589
    33  H   -0.033312
    34  H   -0.043519
 Sum of Mulliken charges =  -1.00000

 Dipole moment (field-independent basis, Debye):
    X=             16.4434    Y=             -4.4300    Z=             -2.3585  Tot=             17.1923
 Quadrupole moment (field-independent basis, Debye-Ang):
   XX=           -176.9269   YY=           -141.0955   ZZ=           -110.8530
   XY=             37.7626   XZ=              9.4311   YZ=            -12.2963

  Exact polarizability:     206.248       8.607     136.025      16.387      -8.993     106.329
 Approx polarizability:     254.790      13.657     224.261      29.533     -18.962     164.718

 Summary of Natural Population Analysis:

                                       Natural Population
                Natural  -----------------------------------------------
    Atom  No    Charge         Core      Valence    Rydberg      Total
 -----------------------------------------------------------------------
      O    1   -0.78231      1.99977     6.77416    0.00838     8.78231
      O    2   -0.78903      1.99974     6.77932    0.00997     8.78903
      O    3   -0.64082      1.99976     6.63125    0.00981     8.64082
      N    4   -0.57274      1.99945     5.55752    0.01577     7.57274
      C    5    0.78212      1.99942     3.14474    0.07372     5.21788
      C    6   -0.14358      1.99892     4.11782    0.02685     6.14358
      C    7    0.17313      1.99897     3.80543    0.02246     5.82687
      C    8   -0.55624      1.99912     4.54832    0.00880     6.55624
      C    9    0.20813      1.99902     3.76973    0.02313     5.79187
      C   10    0.05434      1.99896     3.92598    0.02072     5.94566
      H   11    0.17146      0.00000     0.82235    0.00619     0.82854
      H   12    0.15155      0.00000     0.84146    0.00699     0.84845
      H   13    0.17732      0.00000     0.81902    0.00366     0.82268
      H   14    0.17715      0.00000     0.81860    0.00426     0.82285
      H   15    0.20000      0.00000     0.79279    0.00721     0.80000
      H   16    0.15623      0.00000     0.83986    0.00390     0.84377
      H   17    0.14116      0.00000     0.85361    0.00523     0.85884
      O   18   -0.65690      1.99975     6.64804    0.00911     8.65690
      N   19   -0.57934      1.99910     5.56434    0.01589     7.57934
      C   20    0.69727      1.99920     3.25681    0.04672     5.30273
      C   21   -0.12415      1.99895     4.10790    0.01730     6.12415
      C   22   -0.16160      1.99902     4.14833    0.01425     6.16160
      C   23   -0.16191      1.99910     4.14844    0.01437     6.16191
      C   24   -0.17839      1.99908     4.16536    0.01395     6.17839
      C   25   -0.16322      1.99910     4.14999    0.01414     6.16322
      C   26   -0.12255      1.99904     4.10748    0.01602     6.12255
      H   27    0.16998      0.00000     0.82659    0.00343     0.83002
      H   28    0.16719      0.00000     0.82972    0.00309     0.83281
      H   29    0.16744      0.00000     0.82926    0.00330     0.83256
      H   30    0.16583      0.00000     0.83112    0.00305     0.83417
      H   31    0.18247      0.00000     0.81320    0.00433     0.81753
      H   32    0.34164      0.00000     0.65179    0.00657     0.65836
      H   33    0.17543      0.00000     0.82184    0.00273     0.82457
      H   34    0.17293      0.00000     0.81878    0.00829     0.82707
 =======================================================================
   * Total *   -1.00000     37.98546   101.56096    0.45358   140.00000

 ******   25 imaginary frequencies (negative Signs) ******

                      1                      2                      3
                      A                      A                      A
 Frequencies --  -1851.5601             -1463.0447             -1390.9808
 Red. masses --      1.0714                 1.0835                 1.0090
 Frc consts  --      2.1640                 1.3665                 1.1502
 IR Inten    --     90.3471                74.7272                 0.1022

                      4                      5                      6
                      A                      A                      A
 Frequencies --  -1359.8901             -1298.4009             -1246.7658
 Red. masses --      1.0613                 1.0343                 1.0210
 Frc consts  --      1.1563                 1.0274                 0.9351
 IR Inten    --      0.0937                 1.5477                 0.5743

                      7                      8                      9
                      A                      A                      A
 Frequencies --  -1169.1733             -1142.9465             -1045.8346
 Red. masses --      1.0364                 1.0701                 1.0468
 Frc consts  --      0.8347                 0.8236                 0.6746
 IR Inten    --      0.3722                31.7610                 5.2803

                     10                     11                     12
                      A                      A                      A
 Frequencies --  -1024.5718             -1011.3204              -986.0361
 Red. masses --      1.0426                 1.0597                 1.0447
 Frc consts  --      0.6448                 0.6386                 0.5985
 IR Inten    --      2.4402                 4.2587                10.5695

                     13                     14                     15
                      A                      A                      A
 Frequencies --   -938.1267              -914.4625              -840.4032
 Red. masses --      1.0630                 1.1384                 1.1074
 Frc consts  --      0.5512                 0.5609                 0.4608
 IR Inten    --      4.1918                 0.3766                 9.7493

                     16                     17                     18
                      A                      A                      A
 Frequencies --   -738.6639              -718.4537              -521.6683
 Red. masses --      1.1161                 1.0424                 1.4566
 Frc consts  --      0.3588                 0.3170                 0.2336
 IR Inten    --      7.1535                20.2962                 2.0721

                     19                     20                     21
                      A                      A                      A
 Frequencies --   -481.8808              -361.2280              -328.4410
 Red. masses --      1.3170                 1.6750                 1.9704
 Frc consts  --      0.1802                 0.1288                 0.1252
 IR Inten    --      5.3633                11.0194                 0.7569

                     22                     23                     24
                      A                      A                      A
 Frequencies --   -276.0590              -210.4166              -136.0131
 Red. masses --      2.1235                 2.7967                 2.7827
 Frc consts  --      0.0953                 0.0730                 0.0303
 IR Inten    --      1.4225                 0.9578                 1.6659

                     25                     26                     27
                      A                      A                      A
 Frequencies --    -31.0032               120.1341               147.7932
 Red. masses --     14.5501                10.5230                 8.5114
 Frc consts  --      0.0082                 0.0895                 0.1095
 IR Inten    --      0.7716                11.8988                 8.0497

                     28                     29                     30
                      A                      A                      A
 Frequencies --    177.9597               202.5183               263.9470
 Red. masses --      8.1401                 4.9123                 8.7093
 Frc consts  --      0.1519                 0.1187                 0.3575
 IR Inten    --      3.0796                 2.3164                 5.3168

                     31                     32                     33
                      A                      A                      A
 Frequencies --    301.6847               326.0311               359.3771
 Red. masses --      1.3948                 2.4222                 4.5345
 Frc consts  --      0.0748                 0.1517                 0.3450
 IR Inten    --     23.0692                 7.7769                 1.5470

                     34                     35                     36
                      A                      A                      A
 Frequencies --    406.9951               418.5049               437.7910
 Red. masses --      5.8107                 2.8658                 4.1060
 Frc consts  --      0.5671                 0.2957                 0.4637
 IR Inten    --      0.7357                33.0298                 6.3854

                     37                     38                     39
                      A                      A                      A
 Frequencies --    471.9355               510.0508               525.5718
 Red. masses --      5.9010                 2.2553                 7.0854
 Frc consts  --      0.7744                 0.3457                 1.1531
 IR Inten    --     18.0781                28.0069                 1.1349

                     40                     41                     42
                      A                      A                      A
 Frequencies --    558.5979               587.6112               605.6212
 Red. masses --     10.3626                 2.6520                 2.0729
 Frc consts  --      1.9051                 0.5395                 0.4480
 IR Inten    --      0.2666                 9.3957                40.0475

                     43                     44                     45
                      A                      A                      A
 Frequencies --    631.0377               659.5070               689.8568
 Red. masses --      5.4056                 2.5529                 3.4406
 Frc consts  --      1.2682                 0.6542                 0.9647
 IR Inten    --      0.6472                16.7642                 8.0926

                     46                     47                     48
                      A                      A                      A
 Frequencies --    714.4428               743.5049               746.9152
 Red. masses --      3.0568                 3.4044                 4.2788
 Frc consts  --      0.9193                 1.1088                 1.4064
 IR Inten    --     12.9428                12.7600                 0.5337

                     49                     50                     51
                      A                      A                      A
 Frequencies --    770.3002               780.5146               796.3055
 Red. masses --      6.6874                 4.1359                 4.2005
 Frc consts  --      2.3379                 1.4845                 1.5693
 IR Inten    --     11.3653                36.2326                21.5289

                     52                     53                     54
                      A                      A                      A
 Frequencies --    822.9329               832.4426               837.4377
 Red. masses --      5.0587                 3.6164                 2.5788
 Frc consts  --      2.0184                 1.4765                 1.0655
 IR Inten    --      3.1867                13.2512                 4.2422

                     55                     56                     57
                      A                      A                      A
 Frequencies --    856.2638               877.9346               906.7116
 Red. masses --     10.8774                 3.3622                 5.1742
 Frc consts  --      4.6988                 1.5268                 2.5063
 IR Inten    --      4.4125                10.9832                38.3781

                     58                     59                     60
                      A                      A                      A
 Frequencies --    963.5449               973.9658               996.5027
 Red. masses --      1.5235                 1.7056                 3.3359
 Frc consts  --      0.8334                 0.9533                 1.9517
 IR Inten    --     18.5876                26.0400                51.6231

                     61                     62                     63
                      A                      A                      A
 Frequencies --   1010.0925              1030.0303              1035.7660
 Red. masses --      1.8540                 3.0699                 1.6259
 Frc consts  --      1.1145                 1.9190                 1.0277
 IR Inten    --     10.4596                 8.6589                21.9043

                     64                     65                     66
                      A                      A                      A
 Frequencies --   1049.5235              1074.9215              1084.2365
 Red. masses --      6.2059                 3.3832                 2.2759
 Frc consts  --      4.0275                 2.3032                 1.5764
 IR Inten    --      0.0808                29.4968                28.3027

                     67                     68                     69
                      A                      A                      A
 Frequencies --   1113.4618              1121.8386              1139.6884
 Red. masses --      3.4882                 3.5115                 2.5571
 Frc consts  --      2.5480                 2.6038                 1.9569
 IR Inten    --      3.4774                25.2895                85.5428

                     70                     71                     72
                      A                      A                      A
 Frequencies --   1147.8623              1197.7602              1199.9891
 Red. masses --      4.0511                 7.1021                 6.0526
 Frc consts  --      3.1448                 6.0031                 5.1351
 IR Inten    --      9.8770                31.5814                 8.2222

                     73                     74                     75
                      A                      A                      A
 Frequencies --   1288.8626              1396.3127              1421.8526
 Red. masses --      8.2645                12.8735                 9.3760
 Frc consts  --      8.0887                14.7881                11.1680
 IR Inten    --      0.1834               261.0837               163.4385

                     76                     77                     78
                      A                      A                      A
 Frequencies --   1471.9007              1498.4494              1620.0651
 Red. masses --      8.7851                10.5013                10.4364
 Frc consts  --     11.2138                13.8925                16.1386
 IR Inten    --     15.4191               244.0569                 3.8664

                     79                     80                     81
                      A                      A                      A
 Frequencies --   1717.2750              1747.1605              1749.2517
 Red. masses --     10.9194                11.9026                11.4275
 Frc consts  --     18.9727                21.4071                20.6018
 IR Inten    --    144.0211               337.9834               219.8342

                     82                     83                     84
                      A                      A                      A
 Frequencies --   4356.4181              4401.0391              4429.3414
 Red. masses --      1.0872                 1.0878                 1.0583
 Frc consts  --     12.1571                12.4140                12.2330
 IR Inten    --     11.1510                17.4526                31.3211

                     85                     86                     87
                      A                      A                      A
 Frequencies --   4435.6638              4472.3449              4554.3976
 Red. masses --      1.0598                 1.0323                 1.1127
 Frc consts  --     12.2855                12.1656                13.5989
 IR Inten    --      8.9569                14.2482                 7.3087

                     88                     89                     90
                      A                      A                      A
 Frequencies --   4558.0021              4675.6240              4686.1726
 Red. masses --      1.1105                 1.1066                 1.1066
 Frc consts  --     13.5934                14.2540                14.3184
 IR Inten    --      1.1761                10.0659                 1.5302

                     91                     92                     93
                      A                      A                      A
 Frequencies --   5017.3051              5023.4492              5024.6699
 Red. masses --      1.0869                 1.0889                 1.0889
 Frc consts  --     16.1209                16.1891                16.1972
 IR Inten    --      1.3540                 2.1541                 0.0770

                     94                     95                     96
                      A                      A                      A
 Frequencies --   5034.9541              5049.7164              5867.0559
 Red. masses --      1.0911                 1.0913                 1.0769
 Frc consts  --     16.2962                16.3953                21.8401
 IR Inten    --      1.6083                 0.8977                36.2598

 - Thermochemistry -
 -------------------
 Temperature   298.150 Kelvin.  Pressure   1.00000 Atm.
 Atom     1 has atomic number  8 and mass  15.99491

 Molecular mass:   263.10318 amu.
 Principal axes and moments of inertia in atomic units:
                           1         2         3
     Eigenvalues --  1925.46572********************
           X            0.99987   0.01517   0.00524
           Y           -0.01506   0.99968  -0.02031
           Z           -0.00554   0.02023   0.99978
 This molecule is an asymmetric top.
 Rotational symmetry number  1.
 Warning -- assumption of classical behavior for rotation
           may cause significant error
 Rotational temperatures (Kelvin)      0.04498     0.00751     0.00685
 Rotational constants (GHZ):           0.93730     0.15642     0.14271
   25 imaginary frequencies ignored.
 Zero-point vibrational energy     716112.7 (Joules/Mol)
                                  171.15505 (Kcal/Mol)
 Warning -- explicit consideration of  17 degrees of freedom as
           vibrations may cause significant error
 Vibrational temperatures:    172.85   212.64   256.04   291.38   379.76
          (Kelvin)            434.06   469.09   517.06   585.58   602.14
                              629.88   679.01   733.85   756.18   803.70
                              845.44   871.35   907.92   948.88   992.55
                             1027.92  1069.74  1074.64  1108.29  1122.99
                             1145.71  1184.02  1197.70  1204.89  1231.97
                             1263.15  1304.56  1386.33  1401.32  1433.75
                             1453.30  1481.98  1490.24  1510.03  1546.57
                             1559.97  1602.02  1614.08  1639.76  1651.52
                             1723.31  1726.52  1854.39  2008.98  2045.73
                             2117.74  2155.93  2330.91  2470.78  2513.77
                             2516.78  6267.91  6332.11  6372.83  6381.93
                             6434.71  6552.76  6557.95  6727.18  6742.36
                             7218.78  7227.62  7229.38  7244.18  7265.42
                             8441.38

 Zero-point correction=                           0.272753 (Hartree/Particle)
 Thermal correction to Energy=                    0.283550
 Thermal correction to Enthalpy=                  0.284494
 Thermal correction to Gibbs Free Energy=         0.235504
 Sum of electronic and zero-point Energies=           -912.648663
 Sum of electronic and thermal Energies=              -912.637867
 Sum of electronic and thermal Enthalpies=            -912.636922
 Sum of electronic and thermal Free Energies=         -912.685912

                     E (Thermal)             CV                S
                      KCal/Mol        Cal/Mol-Kelvin    Cal/Mol-Kelvin
 Total                  177.930             47.017            103.107
 Electronic               0.000              0.000              0.000
 Translational            0.889              2.981             42.602
 Rotational               0.889              2.981             33.996
 Vibrational            176.153             41.055             26.510
 Vibration     1          0.609              1.932              3.098
 Vibration     2          0.617              1.905              2.700
 Vibration     3          0.628              1.869              2.350
 Vibration     4          0.639              1.836              2.110
 Vibration     5          0.671              1.739              1.636
 Vibration     6          0.694              1.671              1.408
 Vibration     7          0.710              1.623              1.280
 Vibration     8          0.734              1.556              1.125
 Vibration     9          0.772              1.455              0.937
 Vibration    10          0.781              1.430              0.897
 Vibration    11          0.798              1.388              0.834
 Vibration    12          0.829              1.312              0.732
 Vibration    13          0.865              1.228              0.633
 Vibration    14          0.881              1.193              0.597
 Vibration    15          0.914              1.121              0.527
 Vibration    16          0.945              1.058              0.471
 Vibration    17          0.964              1.020              0.440

 Normal termination of Gaussian 16 at Mon Mar  6 11:23:21 2023.
