 Gaussian 16, Revision C.01,
 Gaussian 16:  ES64L-G16RevC.01  3-Jul-2019

 ----------------------------------------------------------------------
 #p pop=(regular,nbo,savenbos) freq=noraman def2svp empiricaldispersion
 =gd3bj output=wfx pbe1pbe
 ----------------------------------------------------------------------

 ----------------------------------------
 WUGWIF_Complex_7_Ligand_1_ON_Cu_oriented
 ----------------------------------------
 Symbolic Z-matrix:
 Charge = -1 Multiplicity = 1

                         Standard orientation:
 ---------------------------------------------------------------------
 Center     Atomic      Atomic             Coordinates (Angstroms)
 Number     Number       Type             X           Y           Z
 ---------------------------------------------------------------------
      1          8           0       -0.742712    0.423177   -2.113609
      2          6           0        2.280784   -0.944411   -0.288731
      3          6           0        1.925395   -2.283968   -0.141077
      4          1           0        1.037490   -2.500263    0.029751
      5          6           0        3.615821   -0.644169   -0.577681
      6          6           0        1.284166    0.216326   -0.140295
      7          1           0        1.323729    0.764897   -0.951472
      8          6           0        4.561994   -1.665274   -0.699591
      9          1           0        5.446321   -1.458559   -0.901614
     10          6           0        2.860232   -3.300032   -0.243518
     11          1           0        2.604404   -4.187505   -0.126439
     12          6           0        4.183771   -2.984645   -0.520820
     13          1           0        4.818128   -3.662440   -0.586585
     14          8           0        3.932355    0.679222   -0.735924
     15          6           0       -2.502909   -0.492120   -0.844848
     16          6           0       -0.555229   -0.702367    1.306067
     17          6           0       -0.149062   -0.205761    0.080434
     18          6           0       -2.946046   -1.006560    0.381458
     19          6           0       -1.085853   -0.054854   -1.022516
     20          6           0       -3.404448   -0.396507   -1.911882
     21          1           0       -3.120679   -0.053173   -2.728614
     22          6           0       -4.717924   -0.808610   -1.756718
     23          6           0       -5.154297   -1.306583   -0.532217
     24          8           0       -2.363587   -1.501657    2.619275
     25          6           0       -2.002437   -1.097957    1.522531
     26          6           0       -4.271874   -1.407084    0.540481
     27          1           0       -4.565840   -1.741084    1.357002
     28          7           0        1.764287    1.050949    1.025766
     29          6           0        0.939147    2.263456    1.314078
     30          1           0        1.316484    2.715601    2.085278
     31          1           0        0.043785    1.975039    1.554289
     32          6           0        0.832154    3.262254    0.178412
     33          1           0        0.412700    2.835238   -0.583725
     34          1           0        1.723480    3.539376   -0.086982
     35          6           0        0.020365    4.493388    0.573381
     36          1           0       -0.854137    4.206407    0.877549
     37          1           0        0.461147    4.931101    1.318166
     38          6           0       -0.157145    5.495281   -0.540901
     39          1           0       -0.673147    6.239737   -0.222393
     40          1           0       -0.615861    5.078510   -1.275074
     41          1           0        0.702203    5.802977   -0.835049
     42          1           0        2.615292    1.294370    0.748877
     43          8           0        0.205655   -0.868255    2.342759
     44          1           0       -5.309966   -0.753391   -2.472411
     45          1           0        4.730151    0.750372   -0.907810
     46          1           0       -6.039006   -1.572572   -0.429383
 ---------------------------------------------------------------------

 SCF Done:  E(RPBE1PBE) =  -1165.48353473     A.U. after   20 cycles

 The electronic state is 1-A.
 Alpha  occ. eigenvalues --  -19.13528 -19.06784 -19.02888 -18.99625 -14.21368
 Alpha  occ. eigenvalues --  -10.18696 -10.17898 -10.15987 -10.13148 -10.12933
 Alpha  occ. eigenvalues --  -10.12738 -10.12368 -10.12220 -10.12016 -10.11976
 Alpha  occ. eigenvalues --  -10.11839 -10.11691 -10.11478 -10.11336 -10.10490
 Alpha  occ. eigenvalues --  -10.10259 -10.09381 -10.09193 -10.08654 -10.07410
 Alpha  occ. eigenvalues --  -10.06704  -1.01664  -0.92256  -0.88662  -0.82347
 Alpha  occ. eigenvalues --   -0.78549  -0.77759  -0.76619  -0.72520  -0.69306
 Alpha  occ. eigenvalues --   -0.68026  -0.67410  -0.66562  -0.64335  -0.62982
 Alpha  occ. eigenvalues --   -0.57950  -0.56581  -0.55684  -0.54491  -0.53128
 Alpha  occ. eigenvalues --   -0.51723  -0.50863  -0.48489  -0.47850  -0.47056
 Alpha  occ. eigenvalues --   -0.42436  -0.41718  -0.41021  -0.40129  -0.39332
 Alpha  occ. eigenvalues --   -0.37880  -0.36789  -0.36611  -0.36081  -0.35814
 Alpha  occ. eigenvalues --   -0.35435  -0.34057  -0.33080  -0.32927  -0.31742
 Alpha  occ. eigenvalues --   -0.31481  -0.31077  -0.30498  -0.29496  -0.29046
 Alpha  occ. eigenvalues --   -0.28563  -0.27653  -0.27213  -0.26984  -0.26218
 Alpha  occ. eigenvalues --   -0.25491  -0.25428  -0.25123  -0.24595  -0.24252
 Alpha  occ. eigenvalues --   -0.23555  -0.22968  -0.22133  -0.19174  -0.16303
 Alpha  occ. eigenvalues --   -0.15664  -0.15296  -0.14031  -0.13084  -0.11629
 Alpha  occ. eigenvalues --   -0.09525  -0.06473  -0.06121
 Alpha virt. eigenvalues --    0.04630   0.08682   0.10739   0.11878   0.13484
 Alpha virt. eigenvalues --    0.17018   0.17571   0.19526   0.19810   0.20160
 Alpha virt. eigenvalues --    0.21367   0.22655   0.23228   0.23281   0.23866

 Mulliken charges:
               1
     1  O   -0.319921
     2  C   -0.078303
     3  C    0.140814
     4  H   -0.109910
     5  C    0.107742
     6  C    0.382373
     7  H   -0.051369
     8  C    0.021238
     9  H   -0.149376
    10  C    0.091296
    11  H   -0.117736
    12  C    0.106348
    13  H   -0.116826
    14  O   -0.127430
    15  C   -0.020468
    16  C    0.100917
    17  C   -0.426195
    18  C   -0.051656
    19  C    0.200769
    20  C    0.070163
    21  H   -0.125550
    22  C    0.107696
    23  C    0.097631
    24  O   -0.214539
    25  C    0.138147
    26  C    0.082145
    27  H   -0.127875
    28  N   -0.259482
    29  C    0.265231
    30  H   -0.060467
    31  H   -0.029022
    32  C    0.000476
    33  H   -0.001316
    34  H   -0.051388
    35  C   -0.026956
    36  H   -0.023843
    37  H   -0.039810
    38  C    0.160573
    39  H   -0.043272
    40  H   -0.019410
    41  H   -0.038307
    42  H    0.057879
    43  O   -0.350924
    44  H   -0.112646
    45  H    0.076900
    46  H   -0.114341
 Sum of Mulliken charges =  -1.00000

 Dipole moment (field-independent basis, Debye):
    X=              2.1303    Y=              2.3993    Z=             -4.3524  Tot=              5.4073
 Quadrupole moment (field-independent basis, Debye-Ang):
   XX=           -151.2811   YY=           -160.8310   ZZ=           -183.9615
   XY=              2.0141   XZ=             -0.3177   YZ=              9.6096

  Exact polarizability:     287.180       3.185     207.413      10.622     -17.695     199.120
 Approx polarizability:     395.983      18.470     302.247      21.432     -64.101     407.722

 Summary of Natural Population Analysis:

                                       Natural Population
                Natural  -----------------------------------------------
    Atom  No    Charge         Core      Valence    Rydberg      Total
 -----------------------------------------------------------------------
      O    1   -0.67514      1.99976     6.66576    0.00963     8.67514
      C    2   -0.03682      1.99894     4.01705    0.02083     6.03682
      C    3   -0.12433      1.99899     4.11057    0.01476     6.12433
      H    4    0.18505      0.00000     0.81156    0.00339     0.81495
      C    5    0.33548      1.99862     3.64417    0.02173     5.66452
      C    6   -0.02659      1.99893     3.99992    0.02774     6.02659
      H    7    0.19883      0.00000     0.79240    0.00877     0.80117
      C    8   -0.27765      1.99899     4.26282    0.01584     6.27765
      H    9    0.16369      0.00000     0.83279    0.00351     0.83631
      C   10   -0.19717      1.99911     4.18367    0.01439     6.19717
      H   11    0.16410      0.00000     0.83284    0.00306     0.83590
      C   12   -0.17680      1.99913     4.16357    0.01410     6.17680
      H   13    0.15981      0.00000     0.83701    0.00318     0.84019
      O   14   -0.65946      1.99964     6.64449    0.01534     8.65946
      C   15   -0.06772      1.99889     4.05129    0.01755     6.06772
      C   16    0.34301      1.99874     3.61565    0.04260     5.65699
      C   17   -0.29796      1.99886     4.27630    0.02280     6.29796
      C   18   -0.12337      1.99889     4.10792    0.01656     6.12337
      C   19    0.48330      1.99896     3.47453    0.04321     5.51670
      C   20   -0.14689      1.99903     4.12935    0.01851     6.14689
      H   21    0.18155      0.00000     0.81239    0.00607     0.81845
      C   22   -0.16935      1.99911     4.15627    0.01397     6.16935
      C   23   -0.18414      1.99911     4.17086    0.01416     6.18414
      O   24   -0.54954      1.99974     6.53861    0.01119     8.54954
      C   25    0.51891      1.99904     3.43700    0.04505     5.48109
      C   26   -0.13532      1.99904     4.11838    0.01790     6.13532
      H   27    0.17735      0.00000     0.81672    0.00593     0.82265
      N   28   -0.67422      1.99941     5.65757    0.01724     7.67422
      C   29   -0.13892      1.99902     4.12390    0.01601     6.13892
      H   30    0.16502      0.00000     0.83158    0.00340     0.83498
      H   31    0.18002      0.00000     0.81567    0.00432     0.81998
      C   32   -0.38175      1.99905     4.37089    0.01181     6.38175
      H   33    0.18773      0.00000     0.80654    0.00573     0.81227
      H   34    0.16682      0.00000     0.82813    0.00505     0.83318
      C   35   -0.34416      1.99910     4.33478    0.01029     6.34416
      H   36    0.17437      0.00000     0.82111    0.00452     0.82563
      H   37    0.16560      0.00000     0.82975    0.00465     0.83440
      C   38   -0.53813      1.99919     4.53140    0.00755     6.53813
      H   39    0.17462      0.00000     0.82244    0.00294     0.82538
      H   40    0.18138      0.00000     0.81558    0.00304     0.81862
      H   41    0.17221      0.00000     0.82464    0.00315     0.82779
      H   42    0.33849      0.00000     0.65448    0.00703     0.66151
      O   43   -0.63775      1.99979     6.62897    0.00900     8.63775
      H   44    0.16044      0.00000     0.83645    0.00311     0.83956
      H   45    0.42610      0.00000     0.56689    0.00701     0.57390
      H   46    0.15933      0.00000     0.83754    0.00314     0.84067
 =======================================================================
   * Total *   -1.00000     51.97708   133.44215    0.58077   186.00000

 ******   33 imaginary frequencies (negative Signs) ******

                      1                      2                      3
                      A                      A                      A
 Frequencies --  -2077.8031             -1599.1418             -1463.9342
 Red. masses --      1.0673                 1.0816                 1.0796
 Frc consts  --      2.7149                 1.6296                 1.3632
 IR Inten    --     94.7332               152.3164                59.8939

                      4                      5                      6
                      A                      A                      A
 Frequencies --  -1450.5864             -1389.3990             -1382.9736
 Red. masses --      1.0777                 1.0089                 1.0462
 Frc consts  --      1.3362                 1.1475                 1.1789
 IR Inten    --     54.3855                 0.0137                 0.0882

                      7                      8                      9
                      A                      A                      A
 Frequencies --  -1341.0757             -1295.1011             -1261.4728
 Red. masses --      1.0418                 1.0306                 1.0260
 Frc consts  --      1.1039                 1.0184                 0.9619
 IR Inten    --      0.0933                 0.1261                 1.1889

                     10                     11                     12
                      A                      A                      A
 Frequencies --  -1210.3259             -1190.6200             -1112.7013
 Red. masses --      1.0387                 1.0344                 1.0449
 Frc consts  --      0.8965                 0.8639                 0.7622
 IR Inten    --      0.5660                 0.0226                 6.9791

                     13                     14                     15
                      A                      A                      A
 Frequencies --  -1092.3167             -1066.0267             -1012.2878
 Red. masses --      1.0249                 1.0319                 1.0555
 Frc consts  --      0.7205                 0.6909                 0.6372
 IR Inten    --      3.7393                 0.5617                14.3751

                     16                     17                     18
                      A                      A                      A
 Frequencies --   -998.7899              -995.5464              -972.0162
 Red. masses --      1.0500                 1.1104                 1.0752
 Frc consts  --      0.6171                 0.6484                 0.5985
 IR Inten    --      3.1922                85.7236                 3.5677

                     19                     20                     21
                      A                      A                      A
 Frequencies --   -954.0466              -930.5956              -896.8807
 Red. masses --      1.0781                 1.1134                 1.1294
 Frc consts  --      0.5782                 0.5681                 0.5353
 IR Inten    --      2.0272                 6.9448                 0.6961

                     22                     23                     24
                      A                      A                      A
 Frequencies --   -818.2398              -783.4864              -776.7295
 Red. masses --      1.0687                 1.0750                 1.0813
 Frc consts  --      0.4216                 0.3888                 0.3844
 IR Inten    --     27.1528                14.4522                 5.0250

                     25                     26                     27
                      A                      A                      A
 Frequencies --   -761.3636              -585.4468              -506.2411
 Red. masses --      1.0669                 1.2114                 1.5781
 Frc consts  --      0.3644                 0.2446                 0.2383
 IR Inten    --     14.0933                 0.0791                 2.7565

                     28                     29                     30
                      A                      A                      A
 Frequencies --   -476.9792              -429.7980              -322.5975
 Red. masses --      1.1945                 1.5130                 2.0906
 Frc consts  --      0.1601                 0.1647                 0.1282
 IR Inten    --      2.2800                 5.2983                 2.6544

                     31                     32                     33
                      A                      A                      A
 Frequencies --   -302.3656              -141.5352              -114.2505
 Red. masses --      2.1550                 3.2616                 3.6837
 Frc consts  --      0.1161                 0.0385                 0.0283
 IR Inten    --      6.3979                 3.7509                 1.0559

                     34                     35                     36
                      A                      A                      A
 Frequencies --     56.7801                78.9367                86.8110
 Red. masses --      7.0892                12.0578                 8.6996
 Frc consts  --      0.0135                 0.0443                 0.0386
 IR Inten    --      2.0444                 3.5893                 0.1256

                     37                     38                     39
                      A                      A                      A
 Frequencies --    120.3662               146.7619               177.4970
 Red. masses --      9.9691                 6.4413                 7.0803
 Frc consts  --      0.0851                 0.0817                 0.1314
 IR Inten    --      2.6293                 0.4144                 0.1950

                     40                     41                     42
                      A                      A                      A
 Frequencies --    220.4618               233.8694               254.3858
 Red. masses --      7.6471                 5.3697                11.0350
 Frc consts  --      0.2190                 0.1730                 0.4207
 IR Inten    --      0.5386                 2.8980                 6.8592

                     43                     44                     45
                      A                      A                      A
 Frequencies --    275.1759               343.0003               375.1125
 Red. masses --      6.7265                 4.1414                 4.0672
 Frc consts  --      0.3001                 0.2871                 0.3372
 IR Inten    --      0.3615                 2.8344                 6.4583

                     46                     47                     48
                      A                      A                      A
 Frequencies --    382.0751               390.7864               403.5165
 Red. masses --      1.3083                 8.4982                 7.0898
 Frc consts  --      0.1125                 0.7646                 0.6802
 IR Inten    --     14.0224                 9.9133                 2.9835

                     49                     50                     51
                      A                      A                      A
 Frequencies --    415.6880               425.4520               440.0108
 Red. masses --      4.0783                12.9130                 9.2263
 Frc consts  --      0.4152                 1.3771                 1.0525
 IR Inten    --      7.5266                 0.2924                 9.5302

                     52                     53                     54
                      A                      A                      A
 Frequencies --    491.6024               505.9030               510.0178
 Red. masses --      3.9598                 7.2168                 5.6512
 Frc consts  --      0.5638                 1.0882                 0.8661
 IR Inten    --      0.3188                 4.4792                 8.7350

                     55                     56                     57
                      A                      A                      A
 Frequencies --    536.8781               545.2779               560.5050
 Red. masses --      6.5410                 3.6280                 3.8056
 Frc consts  --      1.1108                 0.6356                 0.7044
 IR Inten    --      3.9276                 6.4831                 9.2351

                     58                     59                     60
                      A                      A                      A
 Frequencies --    573.0250               612.3484               619.3380
 Red. masses --      3.0560                 6.4277                 9.0175
 Frc consts  --      0.5912                 1.4200                 2.0379
 IR Inten    --      2.9073                 1.2858                 4.6999

                     61                     62                     63
                      A                      A                      A
 Frequencies --    625.7902               654.3473               672.7348
 Red. masses --      8.1175                 2.6404                 5.0887
 Frc consts  --      1.8730                 0.6661                 1.3569
 IR Inten    --      1.9376                 2.4960                 0.7982

                     64                     65                     66
                      A                      A                      A
 Frequencies --    681.7404               722.0948               730.6430
 Red. masses --      5.4723                 5.5254                 4.4388
 Frc consts  --      1.4985                 1.6975                 1.3961
 IR Inten    --      1.4875                 2.0047                 3.8742

                     67                     68                     69
                      A                      A                      A
 Frequencies --    746.6007               751.9939               765.1740
 Red. masses --      5.2418                 4.2214                 2.2436
 Frc consts  --      1.7215                 1.4065                 0.7740
 IR Inten    --      5.1931                 4.1661                 5.5280

                     70                     71                     72
                      A                      A                      A
 Frequencies --    784.0443               817.6007               825.9251
 Red. masses --      3.1571                 2.8209                11.2027
 Frc consts  --      1.1435                 1.1110                 4.5025
 IR Inten    --      7.7073                18.7927                 0.9123

                     73                     74                     75
                      A                      A                      A
 Frequencies --    829.4628               849.3747               857.2144
 Red. masses --      4.1144                10.8223                 2.8165
 Frc consts  --      1.6678                 4.6001                 1.2194
 IR Inten    --      2.8071                 0.2044                 2.9175

                     76                     77                     78
                      A                      A                      A
 Frequencies --    858.9089               887.5378               912.9255
 Red. masses --      2.7519                 5.2120                 3.7253
 Frc consts  --      1.1961                 2.4190                 1.8293
 IR Inten    --      6.2792                16.2096                41.0514

                     79                     80                     81
                      A                      A                      A
 Frequencies --    923.8969               948.8559               956.7288
 Red. masses --      4.6484                 2.4912                 2.0863
 Frc consts  --      2.3378                 1.3215                 1.1251
 IR Inten    --      4.3012                 7.8936                10.2065

                     82                     83                     84
                      A                      A                      A
 Frequencies --    966.2683               973.1854              1002.0054
 Red. masses --      2.4493                 1.4634                 1.0917
 Frc consts  --      1.3474                 0.8166                 0.6458
 IR Inten    --      5.6908                 2.4222                 4.1947

                     85                     86                     87
                      A                      A                      A
 Frequencies --   1016.9919              1049.5509              1054.1905
 Red. masses --      1.0872                 1.4407                 2.3108
 Frc consts  --      0.6625                 0.9350                 1.5131
 IR Inten    --      9.1193                 5.0421                58.3791

                     88                     89                     90
                      A                      A                      A
 Frequencies --   1066.9414              1089.3023              1108.8762
 Red. masses --      3.7759                 2.3062                 4.8540
 Frc consts  --      2.5325                 1.6123                 3.5166
 IR Inten    --      2.9680                18.7334                23.5283

                     91                     92                     93
                      A                      A                      A
 Frequencies --   1136.3100              1170.2335              1176.9447
 Red. masses --      4.2748                 2.5865                 8.2456
 Frc consts  --      3.2521                 2.0869                 6.7295
 IR Inten    --     18.7326                 1.3058                 2.7504

                     94                     95                     96
                      A                      A                      A
 Frequencies --   1187.1990              1222.4278              1241.9159
 Red. masses --      5.1544                 6.1640                 8.4313
 Frc consts  --      4.2803                 5.4270                 7.6618
 IR Inten    --      6.9062                10.0868                64.3140

                     97                     98                     99
                      A                      A                      A
 Frequencies --   1253.2009              1334.2635              1373.5654
 Red. masses --      7.7935                11.0029                10.4981
 Frc consts  --      7.2114                11.5410                11.6697
 IR Inten    --     34.5319                21.2071               137.9593

                    100                    101                    102
                      A                      A                      A
 Frequencies --   1407.2480              1408.2737              1430.9364
 Red. masses --      9.3887                 8.9778                 8.7945
 Frc consts  --     10.9546                10.4905                10.6097
 IR Inten    --     45.0333                 1.7912                15.8407

                    103                    104                    105
                      A                      A                      A
 Frequencies --   1441.0963              1450.2125              1463.0866
 Red. masses --     10.3580                10.4245                 9.6259
 Frc consts  --     12.6740                12.9172                12.1403
 IR Inten    --     29.6851                46.3028                89.7140

                    106                    107                    108
                      A                      A                      A
 Frequencies --   1628.4335              1636.1924              1651.8574
 Red. masses --     11.0659                11.0877                10.8542
 Frc consts  --     17.2893                17.4888                17.4499
 IR Inten    --     88.8231               114.1717                27.8262

                    109                    110                    111
                      A                      A                      A
 Frequencies --   1660.2545              1671.8706              1702.3638
 Red. masses --     11.2566                10.2364                12.5351
 Frc consts  --     18.2813                16.8578                21.4034
 IR Inten    --     41.8725                39.0090               356.0508

                    112                    113                    114
                      A                      A                      A
 Frequencies --   1773.9590              4358.4412              4418.5795
 Red. masses --     12.9974                 1.0861                 1.0610
 Frc consts  --     24.0987                12.1558                12.2047
 IR Inten    --    142.8239                 4.0108                19.2843

                    115                    116                    117
                      A                      A                      A
 Frequencies --   4421.3491              4424.6825              4465.5450
 Red. masses --      1.0605                 1.0599                 1.0323
 Frc consts  --     12.2139                12.2263                12.1283
 IR Inten    --      7.8674                35.3279                19.9890

                    118                    119                    120
                      A                      A                      A
 Frequencies --   4534.9830              4541.3370              4552.2665
 Red. masses --      1.1087                 1.1086                 1.1080
 Frc consts  --     13.4346                13.4705                13.5285
 IR Inten    --      6.5764                 0.4757                22.7723

                    121                    122                    123
                      A                      A                      A
 Frequencies --   4666.2617              4680.1270              4754.9707
 Red. masses --      1.1068                 1.1067                 1.0746
 Frc consts  --     14.1987                14.2823                14.3147
 IR Inten    --     10.5399                 8.6352                23.1769

                    124                    125                    126
                      A                      A                      A
 Frequencies --   5012.8292              5019.9099              5022.3912
 Red. masses --      1.0865                 1.0887                 1.0872
 Frc consts  --     16.0852                16.1635                16.1577
 IR Inten    --      0.5283                 4.5170                 3.0805

                    127                    128                    129
                      A                      A                      A
 Frequencies --   5029.9751              5036.5209              5040.2828
 Red. masses --      1.0914                 1.0881                 1.0901
 Frc consts  --     16.2690                16.2616                16.3161
 IR Inten    --      3.7826                 0.9677                 2.0904

                    130                    131                    132
                      A                      A                      A
 Frequencies --   5045.8268              5047.0903              6324.2522
 Red. masses --      1.0898                 1.0911                 1.0669
 Frc consts  --     16.3474                16.3753                25.1425
 IR Inten    --      3.9185                 3.3915               105.2125

 - Thermochemistry -
 -------------------
 Temperature   298.150 Kelvin.  Pressure   1.00000 Atm.
 Atom     1 has atomic number  8 and mass  15.99491

 Molecular mass:   350.13923 amu.
 Principal axes and moments of inertia in atomic units:
                           1         2         3
     Eigenvalues --  7336.33074********************
           X            0.99999  -0.00251   0.00419
           Y            0.00248   0.99997   0.00764
           Z           -0.00421  -0.00763   0.99996
 This molecule is an asymmetric top.
 Rotational symmetry number  1.
 Warning -- assumption of classical behavior for rotation
           may cause significant error
 Rotational temperatures (Kelvin)      0.01181     0.00767     0.00583
 Rotational constants (GHZ):           0.24600     0.15983     0.12138
   33 imaginary frequencies ignored.
 Zero-point vibrational energy     979334.6 (Joules/Mol)
                                  234.06658 (Kcal/Mol)
 Warning -- explicit consideration of  27 degrees of freedom as
           vibrations may cause significant error
 Vibrational temperatures:     81.69   113.57   124.90   173.18   211.16
          (Kelvin)            255.38   317.20   336.49   366.00   395.92
                              493.50   539.70   549.72   562.25   580.57
                              598.08   612.13   633.08   707.31   727.88
                              733.80   772.45   784.53   806.44   824.46
                              881.03   891.09   900.37   941.46   967.92
                              980.87  1038.93  1051.23  1074.19  1081.95
                             1100.91  1128.06  1176.35  1188.32  1193.41
                             1222.06  1233.34  1235.78  1276.97  1313.50
                             1329.28  1365.19  1376.52  1390.24  1400.20
                             1441.66  1463.22  1510.07  1516.75  1535.09
                             1567.26  1595.43  1634.90  1683.70  1693.36
                             1708.11  1758.80  1786.84  1803.08  1919.71
                             1976.25  2024.72  2026.19  2058.80  2073.42
                             2086.53  2105.06  2342.95  2354.12  2376.65
                             2388.74  2405.45  2449.32  2552.33  6270.82
                             6357.35  6361.34  6366.13  6424.92  6524.83
                             6533.97  6549.70  6713.71  6733.66  6841.34
                             7212.34  7222.53  7226.10  7237.01  7246.43
                             7251.84  7259.82  7261.64  9099.19

 Zero-point correction=                           0.373009 (Hartree/Particle)
 Thermal correction to Energy=                    0.388565
 Thermal correction to Enthalpy=                  0.389510
 Thermal correction to Gibbs Free Energy=         0.330107
 Sum of electronic and zero-point Energies=          -1165.110526
 Sum of electronic and thermal Energies=             -1165.094969
 Sum of electronic and thermal Enthalpies=           -1165.094025
 Sum of electronic and thermal Free Energies=        -1165.153427

                     E (Thermal)             CV                S
                      KCal/Mol        Cal/Mol-Kelvin    Cal/Mol-Kelvin
 Total                  243.829             66.254            125.023
 Electronic               0.000              0.000              0.000
 Translational            0.889              2.981             43.453
 Rotational               0.889              2.981             35.464
 Vibrational            242.051             60.293             46.105
 Vibration     1          0.596              1.975              4.566
 Vibration     2          0.600              1.963              3.917
 Vibration     3          0.601              1.958              3.731
 Vibration     4          0.609              1.932              3.094
 Vibration     5          0.617              1.906              2.714
 Vibration     6          0.628              1.870              2.355
 Vibration     7          0.647              1.810              1.955
 Vibration     8          0.654              1.789              1.849
 Vibration     9          0.665              1.755              1.700
 Vibration    10          0.677              1.719              1.563
 Vibration    11          0.722              1.589              1.198
 Vibration    12          0.746              1.523              1.059
 Vibration    13          0.752              1.508              1.031
 Vibration    14          0.758              1.490              0.997
 Vibration    15          0.769              1.463              0.950
 Vibration    16          0.779              1.436              0.907
 Vibration    17          0.787              1.415              0.874
 Vibration    18          0.800              1.383              0.827
 Vibration    19          0.847              1.269              0.679
 Vibration    20          0.861              1.237              0.644
 Vibration    21          0.865              1.228              0.634
 Vibration    22          0.892              1.168              0.572
 Vibration    23          0.900              1.150              0.554
 Vibration    24          0.916              1.117              0.523
 Vibration    25          0.929              1.090              0.498
 Vibration    26          0.972              1.006              0.429
 Vibration    27          0.979              0.991              0.418

 Normal termination of Gaussian 16 at Mon Mar  6 12:31:34 2023.
