 Gaussian 16, Revision C.01,
 Gaussian 16:  ES64L-G16RevC.01  3-Jul-2019

 ----------------------------------------------------------------------
 #p pop=(regular,nbo,savenbos) freq=noraman def2svp empiricaldispersion
 =gd3bj output=wfx pbe1pbe
 ----------------------------------------------------------------------

 ----------------------------------------
 WUGWAX_Complex_2_Ligand_0_ON_Cu_oriented
 ----------------------------------------
 Symbolic Z-matrix:
 Charge = -1 Multiplicity = 1

                         Standard orientation:
 ---------------------------------------------------------------------
 Center     Atomic      Atomic             Coordinates (Angstroms)
 Number     Number       Type             X           Y           Z
 ---------------------------------------------------------------------
      1          7           0       -1.968113    1.225205    0.229544
      2          1           0       -1.403209    0.255206   -1.501950
      3          6           0       -2.335752   -1.193889   -0.365994
      4          6           0       -1.429918    0.041549   -0.536914
      5          6           0       -3.691837   -1.123270   -0.029720
      6          1           0       -4.077890   -0.295754    0.145855
      7          6           0       -1.808794   -2.465339   -0.638917
      8          1           0       -0.916082   -2.546238   -0.889018
      9          6           0       -4.479044   -2.280331    0.049387
     10          1           0       -5.381052   -2.210296    0.267955
     11          6           0       -3.927880   -3.523939   -0.195970
     12          1           0       -4.448694   -4.290731   -0.127857
     13          6           0       -2.602606   -3.612001   -0.540622
     14          1           0       -2.227002   -4.445982   -0.711759
     15          6           0       -0.913710    4.968220    0.343846
     16          1           0       -0.026210    4.862530    0.719018
     17          1           0       -1.335677    5.709728    0.803359
     18          6           0       -0.782888    5.306928   -1.027343
     19          1           0       -0.797801    4.507429   -1.557881
     20          1           0       -1.510234    5.876568   -1.286842
     21          1           0        0.049195    5.766455   -1.165552
     22          6           0       -1.132197    2.457410   -0.022046
     23          6           0       -1.714673    3.698953    0.639837
     24          1           0       -2.625662    3.822481    0.330769
     25          8           0       -0.500734   -0.151731    2.240831
     26          6           0        0.334229   -0.320419    1.245041
     27          6           0        0.010170   -0.218400   -0.103249
     28          6           0        2.816629   -0.715060    0.623207
     29          6           0        2.466150   -0.557838   -0.735261
     30          6           0        1.037792   -0.340466   -1.142520
     31          6           0        3.478164   -0.590682   -1.719155
     32          1           0        3.255383   -0.498319   -2.618568
     33          6           0        4.797317   -0.760368   -1.350087
     34          1           0        5.459788   -0.780664   -2.003391
     35          8           0        2.002170   -0.876278    2.860008
     36          6           0        1.752447   -0.665758    1.674959
     37          6           0        4.155801   -0.891161    0.991027
     38          1           0        4.387977   -0.999233    1.884390
     39          6           0        5.149697   -0.902785   -0.005092
     40          1           0        6.043578   -1.004424    0.232075
     41          8           0        0.760594   -0.227919   -2.349663
     42          1           0       -1.066130    2.607017   -0.978089
     43          1           0       -0.234969    2.307181    0.317715
     44          1           0       -2.794909    1.398827   -0.001812
     45          1           0       -1.744422    3.561084    1.598871
 ---------------------------------------------------------------------

 SCF Done:  E(RPBE1PBE) =  -1090.36304733     A.U. after   20 cycles

 The electronic state is 1-A.
 Alpha  occ. eigenvalues --  -19.07125 -19.03293 -18.99914 -14.22470 -10.18466
 Alpha  occ. eigenvalues --  -10.16546 -10.13629 -10.13556 -10.13324 -10.12676
 Alpha  occ. eigenvalues --  -10.12609 -10.12475 -10.12442 -10.12402 -10.11856
 Alpha  occ. eigenvalues --  -10.11108 -10.10721 -10.10659 -10.10641 -10.10232
 Alpha  occ. eigenvalues --  -10.10071 -10.09632 -10.09152 -10.08368 -10.07427
 Alpha  occ. eigenvalues --   -0.92114  -0.88780  -0.81934  -0.79617  -0.77656
 Alpha  occ. eigenvalues --   -0.76473  -0.74792  -0.69316  -0.67971  -0.67483
 Alpha  occ. eigenvalues --   -0.66301  -0.64908  -0.63035  -0.58253  -0.56685
 Alpha  occ. eigenvalues --   -0.55659  -0.53231  -0.53088  -0.51623  -0.50683
 Alpha  occ. eigenvalues --   -0.48418  -0.47275  -0.44963  -0.41977  -0.41418
 Alpha  occ. eigenvalues --   -0.40947  -0.40399  -0.38922  -0.38101  -0.37067
 Alpha  occ. eigenvalues --   -0.36092  -0.35576  -0.35261  -0.34864  -0.33855
 Alpha  occ. eigenvalues --   -0.33252  -0.32040  -0.31381  -0.31157  -0.30177
 Alpha  occ. eigenvalues --   -0.29626  -0.29132  -0.28296  -0.27443  -0.27030
 Alpha  occ. eigenvalues --   -0.26615  -0.26034  -0.25984  -0.25502  -0.25083
 Alpha  occ. eigenvalues --   -0.24470  -0.24005  -0.23040  -0.22208  -0.19095
 Alpha  occ. eigenvalues --   -0.16570  -0.15734  -0.15255  -0.14604  -0.14203
 Alpha  occ. eigenvalues --   -0.12209  -0.10205  -0.06964  -0.06295
 Alpha virt. eigenvalues --    0.04342   0.08276   0.10777   0.11523   0.13121
 Alpha virt. eigenvalues --    0.16791   0.19202   0.19670   0.19727   0.20556
 Alpha virt. eigenvalues --    0.21107   0.21729   0.22938   0.23076   0.23360

 Mulliken charges:
               1
     1  N   -0.266024
     2  H   -0.048231
     3  C   -0.003197
     4  C    0.367672
     5  C    0.072983
     6  H   -0.140953
     7  C    0.117279
     8  H   -0.115335
     9  C    0.084923
    10  H   -0.119879
    11  C    0.088372
    12  H   -0.121862
    13  C    0.093420
    14  H   -0.116020
    15  C   -0.002385
    16  H   -0.026292
    17  H   -0.047168
    18  C    0.176449
    19  H   -0.036540
    20  H   -0.044076
    21  H   -0.039731
    22  C    0.229439
    23  C    0.055516
    24  H   -0.049730
    25  O   -0.360557
    26  C    0.114494
    27  C   -0.432662
    28  C   -0.055823
    29  C   -0.023029
    30  C    0.198516
    31  C    0.076448
    32  H   -0.123486
    33  C    0.105996
    34  H   -0.110621
    35  O   -0.218091
    36  C    0.145074
    37  C    0.083734
    38  H   -0.124993
    39  C    0.092325
    40  H   -0.110923
    41  O   -0.328281
    42  H   -0.051180
    43  H   -0.018626
    44  H    0.051773
    45  H   -0.018717
 Sum of Mulliken charges =  -1.00000

 Dipole moment (field-independent basis, Debye):
    X=              0.1512    Y=              2.4000    Z=             -3.8107  Tot=              4.5061
 Quadrupole moment (field-independent basis, Debye-Ang):
   XX=           -155.3003   YY=           -151.9418   ZZ=           -180.4182
   XY=             -2.7361   XZ=             -0.7707   YZ=              2.3770

  Exact polarizability:     288.487       3.650     197.010     -19.980       0.163     201.305
 Approx polarizability:     406.659      -8.983     268.554     -53.067      -1.683     421.728

 Summary of Natural Population Analysis:

                                       Natural Population
                Natural  -----------------------------------------------
    Atom  No    Charge         Core      Valence    Rydberg      Total
 -----------------------------------------------------------------------
      N    1   -0.65071      1.99934     5.63259    0.01878     7.65071
      H    2    0.20176      0.00000     0.79008    0.00816     0.79824
      C    3    0.01356      1.99903     3.96813    0.01928     5.98644
      C    4   -0.02245      1.99890     3.99859    0.02496     6.02245
      C    5   -0.17819      1.99899     4.16460    0.01460     6.17819
      H    6    0.16468      0.00000     0.83194    0.00338     0.83532
      C    7   -0.15337      1.99899     4.14000    0.01437     6.15337
      H    8    0.17824      0.00000     0.81831    0.00344     0.82176
      C    9   -0.17486      1.99912     4.16142    0.01432     6.17486
      H   10    0.15822      0.00000     0.83861    0.00317     0.84178
      C   11   -0.20181      1.99911     4.18846    0.01423     6.20181
      H   12    0.15875      0.00000     0.83802    0.00323     0.84125
      C   13   -0.17311      1.99911     4.15971    0.01429     6.17311
      H   14    0.16046      0.00000     0.83634    0.00320     0.83954
      C   15   -0.34657      1.99911     4.33604    0.01142     6.34657
      H   16    0.17589      0.00000     0.81970    0.00441     0.82411
      H   17    0.17450      0.00000     0.82147    0.00403     0.82550
      C   18   -0.54870      1.99921     4.54094    0.00855     6.54870
      H   19    0.18386      0.00000     0.81271    0.00343     0.81614
      H   20    0.17293      0.00000     0.82386    0.00321     0.82707
      H   21    0.18175      0.00000     0.81532    0.00293     0.81825
      C   22   -0.14212      1.99901     4.12760    0.01552     6.14212
      C   23   -0.36071      1.99907     4.34940    0.01225     6.36071
      H   24    0.16332      0.00000     0.83178    0.00490     0.83668
      O   25   -0.63376      1.99980     6.62549    0.00847     8.63376
      C   26    0.34822      1.99873     3.61139    0.04166     5.65178
      C   27   -0.29612      1.99886     4.27376    0.02350     6.29612
      C   28   -0.12410      1.99890     4.10886    0.01634     6.12410
      C   29   -0.06778      1.99891     4.05148    0.01740     6.06778
      C   30    0.47690      1.99896     3.48082    0.04332     5.52310
      C   31   -0.14792      1.99904     4.13044    0.01844     6.14792
      H   32    0.18185      0.00000     0.81218    0.00597     0.81815
      C   33   -0.17093      1.99910     4.15796    0.01386     6.17093
      H   34    0.16077      0.00000     0.83608    0.00314     0.83923
      O   35   -0.54809      1.99975     6.53743    0.01092     8.54809
      C   36    0.52204      1.99905     3.43422    0.04468     5.47796
      C   37   -0.13383      1.99904     4.11718    0.01761     6.13383
      H   38    0.17639      0.00000     0.81787    0.00575     0.82361
      C   39   -0.18291      1.99912     4.16968    0.01411     6.18291
      H   40    0.15932      0.00000     0.83761    0.00307     0.84068
      O   41   -0.67760      1.99976     6.66830    0.00954     8.67760
      H   42    0.14571      0.00000     0.84995    0.00435     0.85429
      H   43    0.18194      0.00000     0.81335    0.00471     0.81806
      H   44    0.30404      0.00000     0.68881    0.00714     0.69596
      H   45    0.19051      0.00000     0.80411    0.00538     0.80949
 =======================================================================
   * Total *   -1.00000     49.97800   127.47259    0.54941   178.00000

 ******   33 imaginary frequencies (negative Signs) ******

                      1                      2                      3
                      A                      A                      A
 Frequencies --  -1674.2679             -1474.6470             -1449.4927
 Red. masses --      1.0818                 1.0841                 1.0775
 Frc consts  --      1.7867                 1.3889                 1.3338
 IR Inten    --     69.6740                70.3089                56.0951

                      4                      5                      6
                      A                      A                      A
 Frequencies --  -1401.7717             -1380.4554             -1342.5648
 Red. masses --      1.0084                 1.0457                 1.0421
 Frc consts  --      1.1675                 1.1741                 1.1067
 IR Inten    --      0.0125                 0.0692                 0.1565

                      7                      8                      9
                      A                      A                      A
 Frequencies --  -1334.6447             -1266.2321             -1257.8415
 Red. masses --      1.0361                 1.0269                 1.0225
 Frc consts  --      1.0873                 0.9701                 0.9531
 IR Inten    --      0.2736                 0.9854                 0.0141

                     10                     11                     12
                      A                      A                      A
 Frequencies --  -1190.0365             -1189.2983             -1117.3245
 Red. masses --      1.0341                 1.0405                 1.0387
 Frc consts  --      0.8628                 0.8671                 0.7640
 IR Inten    --      0.0942                 0.0801                 8.4624

                     13                     14                     15
                      A                      A                      A
 Frequencies --  -1071.5154             -1061.4853              -986.7277
 Red. masses --      1.0293                 1.0386                 1.1055
 Frc consts  --      0.6963                 0.6895                 0.6341
 IR Inten    --      1.7542                 3.7916                24.2408

                     16                     17                     18
                      A                      A                      A
 Frequencies --   -978.3976              -959.0719              -957.8230
 Red. masses --      1.0768                 1.0694                 1.0747
 Frc consts  --      0.6073                 0.5795                 0.5809
 IR Inten    --      4.5738                 2.4409                 1.8883

                     19                     20                     21
                      A                      A                      A
 Frequencies --   -953.1611              -933.3926              -906.7974
 Red. masses --      1.0625                 1.1085                 1.1476
 Frc consts  --      0.5687                 0.5690                 0.5560
 IR Inten    --     12.0557                 5.8262                 1.0916

                     22                     23                     24
                      A                      A                      A
 Frequencies --   -844.9459              -824.3781              -773.2938
 Red. masses --      1.0978                 1.0719                 1.0840
 Frc consts  --      0.4618                 0.4292                 0.3819
 IR Inten    --      6.8482                25.4699                 4.8957

                     25                     26                     27
                      A                      A                      A
 Frequencies --   -772.6315              -717.2969              -586.0568
 Red. masses --      1.0838                 1.0420                 1.2493
 Frc consts  --      0.3812                 0.3159                 0.2528
 IR Inten    --      7.6992                22.2024                 0.7450

                     28                     29                     30
                      A                      A                      A
 Frequencies --   -518.0818              -456.3841              -400.0755
 Red. masses --      1.3394                 1.5954                 1.6990
 Frc consts  --      0.2118                 0.1958                 0.1602
 IR Inten    --      0.9437                 4.7501                 0.7563

                     31                     32                     33
                      A                      A                      A
 Frequencies --   -317.6054              -237.9787              -133.7399
 Red. masses --      2.1514                 2.1551                 3.3121
 Frc consts  --      0.1279                 0.0719                 0.0349
 IR Inten    --      1.1156                 0.6706                 1.9778

                     34                     35                     36
                      A                      A                      A
 Frequencies --     31.5362                92.7620               108.1384
 Red. masses --      6.7274                10.2262                11.9858
 Frc consts  --      0.0039                 0.0518                 0.0826
 IR Inten    --      2.4687                 4.3362                 0.3846

                     37                     38                     39
                      A                      A                      A
 Frequencies --    114.8152               154.6995               199.2964
 Red. masses --      7.5084                 7.4239                 8.6262
 Frc consts  --      0.0583                 0.1047                 0.2019
 IR Inten    --      0.5980                 4.2694                 0.0979

                     40                     41                     42
                      A                      A                      A
 Frequencies --    210.2162               234.2050               245.2539
 Red. masses --      5.4701                 7.9917                 5.5036
 Frc consts  --      0.1424                 0.2583                 0.1950
 IR Inten    --      1.4740                 0.2263                 0.9710

                     43                     44                     45
                      A                      A                      A
 Frequencies --    270.2083               377.5375               396.1662
 Red. masses --     10.1072                 9.0600                 6.8366
 Frc consts  --      0.4348                 0.7608                 0.6322
 IR Inten    --      4.1203                13.5582                 2.5131

                     46                     47                     48
                      A                      A                      A
 Frequencies --    402.4353               424.2093               446.7127
 Red. masses --      9.2510                14.4802                 9.2674
 Frc consts  --      0.8827                 1.5353                 1.0896
 IR Inten    --      5.6870                 0.1993                14.8429

                     49                     50                     51
                      A                      A                      A
 Frequencies --    463.2215               485.6111               511.9486
 Red. masses --      3.6058                 3.2374                 9.9601
 Frc consts  --      0.4559                 0.4498                 1.5380
 IR Inten    --      2.6644                10.5186                 5.7707

                     52                     53                     54
                      A                      A                      A
 Frequencies --    527.2163               534.9682               549.5721
 Red. masses --      9.4948                 1.9952                 9.6561
 Frc consts  --      1.5549                 0.3364                 1.7183
 IR Inten    --      1.6219                15.3516                 0.2894

                     55                     56                     57
                      A                      A                      A
 Frequencies --    567.3222               572.3658               594.3016
 Red. masses --      4.8634                 1.8947                 4.3462
 Frc consts  --      0.9223                 0.3657                 0.9044
 IR Inten    --      0.9934                 9.1993                 3.3750

                     58                     59                     60
                      A                      A                      A
 Frequencies --    600.7126               629.6510               638.0302
 Red. masses --      1.7919                 6.4689                 3.8965
 Frc consts  --      0.3810                 1.5111                 0.9346
 IR Inten    --     13.4813                 7.8215                 3.1916

                     61                     62                     63
                      A                      A                      A
 Frequencies --    700.0421               710.7893               719.8407
 Red. masses --      2.1374                 3.3526                 3.3409
 Frc consts  --      0.6171                 0.9980                 1.0200
 IR Inten    --     23.4776                 5.0639                 0.8044

                     64                     65                     66
                      A                      A                      A
 Frequencies --    732.2921               744.4179               745.8971
 Red. masses --      4.8039                 3.8905                 4.3739
 Frc consts  --      1.5178                 1.2702                 1.4338
 IR Inten    --      9.9562                 0.3183                 0.5637

                     67                     68                     69
                      A                      A                      A
 Frequencies --    761.9554               792.0409               813.4742
 Red. masses --      5.1136                 4.0470                 4.4150
 Frc consts  --      1.7492                 1.4958                 1.7213
 IR Inten    --      7.7253                14.6759                 5.9180

                     70                     71                     72
                      A                      A                      A
 Frequencies --    827.8239               830.7392               833.0223
 Red. masses --      5.1056                 3.2551                 3.2182
 Frc consts  --      2.0614                 1.3236                 1.3158
 IR Inten    --      1.6957                 2.4323                 1.7336

                     73                     74                     75
                      A                      A                      A
 Frequencies --    859.1946               867.8227               890.5208
 Red. masses --     10.2259                 2.7621                 3.7560
 Frc consts  --      4.4477                 1.2256                 1.7550
 IR Inten    --      1.1227                10.8321                 5.0136

                     76                     77                     78
                      A                      A                      A
 Frequencies --    911.8729               932.5045               942.9519
 Red. masses --      2.8869                 3.3675                 4.7983
 Frc consts  --      1.4143                 1.7253                 2.5137
 IR Inten    --      4.6050                 3.7941                 7.6214

                     79                     80                     81
                      A                      A                      A
 Frequencies --    970.8929               973.6173              1003.8749
 Red. masses --      1.6113                 3.0593                 2.1861
 Frc consts  --      0.8949                 1.7086                 1.2980
 IR Inten    --      4.8646                32.2821                37.8421

                     82                     83                     84
                      A                      A                      A
 Frequencies --   1018.8818              1033.0384              1040.6593
 Red. masses --      1.2587                 1.1776                 3.8115
 Frc consts  --      0.7699                 0.7404                 2.4320
 IR Inten    --     12.6261                12.1629                23.1061

                     85                     86                     87
                      A                      A                      A
 Frequencies --   1042.5972              1086.2291              1089.9929
 Red. masses --      6.0004                 1.8644                 1.3119
 Frc consts  --      3.8429                 1.2961                 0.9184
 IR Inten    --      1.1800                22.3999                 0.4268

                     88                     89                     90
                      A                      A                      A
 Frequencies --   1100.1412              1142.5465              1164.8315
 Red. masses --      3.8295                 2.2242                 8.4590
 Frc consts  --      2.7308                 1.7107                 6.7623
 IR Inten    --     31.4883                 1.9907                 3.9972

                     91                     92                     93
                      A                      A                      A
 Frequencies --   1175.2273              1195.6405              1215.9386
 Red. masses --      4.6138                 5.3951                 8.9929
 Frc consts  --      3.7545                 4.5441                 7.8338
 IR Inten    --      3.0173                 7.3314                62.7204

                     94                     95                     96
                      A                      A                      A
 Frequencies --   1285.2825              1317.6964              1332.9828
 Red. masses --     10.7190                10.5563                 8.5741
 Frc consts  --     10.4328                10.7993                 8.9761
 IR Inten    --     27.6006                97.4391                 6.5388

                     97                     98                     99
                      A                      A                      A
 Frequencies --   1369.7880              1395.4471              1409.0268
 Red. masses --      9.8172                 8.7813                10.7377
 Frc consts  --     10.8529                10.0748                12.5603
 IR Inten    --     62.5200                13.5761                58.5311

                    100                    101                    102
                      A                      A                      A
 Frequencies --   1426.0430              1432.0537              1453.6726
 Red. masses --      8.9261                 9.6212                 6.3511
 Frc consts  --     10.6949                11.6251                 7.9074
 IR Inten    --      5.7617                 0.9852                 2.1490

                    103                    104                    105
                      A                      A                      A
 Frequencies --   1585.1381              1601.5295              1611.9175
 Red. masses --     10.9565                11.2022                10.4068
 Frc consts  --     16.2203                16.9287                15.9314
 IR Inten    --     92.3862               111.4052                16.6082

                    106                    107                    108
                      A                      A                      A
 Frequencies --   1637.3176              1662.6213              1674.1169
 Red. masses --     10.9137                10.0346                12.6674
 Frc consts  --     17.2381                16.3431                20.9174
 IR Inten    --     21.4325                 3.7352               349.1048

                    109                    110                    111
                      A                      A                      A
 Frequencies --   1734.9035              4249.4192              4412.1942
 Red. masses --     12.9450                 1.0856                 1.0592
 Frc consts  --     22.9564                11.5496                12.1491
 IR Inten    --    133.6853                12.9328                24.8398

                    112                    113                    114
                      A                      A                      A
 Frequencies --   4418.3709              4426.1661              4459.5074
 Red. masses --      1.0609                 1.0607                 1.0347
 Frc consts  --     12.2030                12.2435                12.1240
 IR Inten    --     27.2008                20.6100                23.6789

                    115                    116                    117
                      A                      A                      A
 Frequencies --   4531.2003              4533.1484              4549.9887
 Red. masses --      1.1089                 1.1076                 1.1080
 Frc consts  --     13.4141                13.4102                13.5148
 IR Inten    --      8.1376                11.4747                16.6312

                    118                    119                    120
                      A                      A                      A
 Frequencies --   4657.6440              4669.2006              5016.3197
 Red. masses --      1.1063                 1.1058                 1.0866
 Frc consts  --     14.1399                14.2035                16.1098
 IR Inten    --      7.7965                 4.9711                 0.7694

                    121                    122                    123
                      A                      A                      A
 Frequencies --   5017.6916              5020.8466              5027.9928
 Red. masses --      1.0868                 1.0880                 1.0887
 Frc consts  --     16.1217                16.1594                16.2164
 IR Inten    --      3.1141                 3.6557                 0.0841

                    124                    125                    126
                      A                      A                      A
 Frequencies --   5031.2681              5033.7526              5037.3834
 Red. masses --      1.0895                 1.0911                 1.0891
 Frc consts  --     16.2489                16.2888                16.2829
 IR Inten    --      0.4758                 4.6048                 3.0123

                    127                    128                    129
                      A                      A                      A
 Frequencies --   5042.2873              5053.5478              5569.2965
 Red. masses --      1.0919                 1.0896                 1.0756
 Frc consts  --     16.3569                16.3948                19.6559
 IR Inten    --      6.5532                 1.5110                 0.2870

 - Thermochemistry -
 -------------------
 Temperature   298.150 Kelvin.  Pressure   1.00000 Atm.
 Atom     1 has atomic number  7 and mass  14.00307

 Molecular mass:   334.14432 amu.
 Principal axes and moments of inertia in atomic units:
                           1         2         3
     Eigenvalues --  7768.72640********************
           X            0.99971  -0.02358  -0.00382
           Y            0.02358   0.99972  -0.00239
           Z            0.00388   0.00230   0.99999
 This molecule is an asymmetric top.
 Rotational symmetry number  1.
 Warning -- assumption of classical behavior for rotation
           may cause significant error
 Rotational temperatures (Kelvin)      0.01115     0.00845     0.00602
 Rotational constants (GHZ):           0.23231     0.17607     0.12554
   33 imaginary frequencies ignored.
 Zero-point vibrational energy     962642.1 (Joules/Mol)
                                  230.07698 (Kcal/Mol)
 Warning -- explicit consideration of  25 degrees of freedom as
           vibrations may cause significant error
 Vibrational temperatures:     45.37   133.46   155.59   165.19   222.58
          (Kelvin)            286.74   302.45   336.97   352.87   388.77
                              543.19   569.99   579.01   610.34   642.72
                              666.47   698.69   736.58   758.55   769.70
                              790.71   816.25   823.51   855.07   864.29
                              905.93   917.98  1007.20  1022.67  1035.69
                             1053.60  1071.05  1073.18  1096.28  1139.57
                             1170.41  1191.05  1195.25  1198.53  1236.19
                             1248.60  1281.26  1311.98  1341.67  1356.70
                             1396.90  1400.82  1444.35  1465.94  1486.31
                             1497.28  1500.06  1562.84  1568.26  1582.86
                             1643.87  1675.93  1690.89  1720.26  1749.46
                             1849.23  1895.87  1917.86  1970.82  2007.74
                             2027.28  2051.76  2060.41  2091.51  2280.66
                             2304.24  2319.19  2355.73  2392.14  2408.68
                             2496.14  6113.97  6348.16  6357.05  6368.27
                             6416.24  6519.39  6522.19  6546.42  6701.31
                             6717.94  7217.37  7219.34  7223.88  7234.16
                             7238.87  7242.45  7247.67  7254.73  7270.93
                             8012.98

 Zero-point correction=                           0.366651 (Hartree/Particle)
 Thermal correction to Energy=                    0.381408
 Thermal correction to Enthalpy=                  0.382352
 Thermal correction to Gibbs Free Energy=         0.324065
 Sum of electronic and zero-point Energies=          -1089.996396
 Sum of electronic and thermal Energies=             -1089.981639
 Sum of electronic and thermal Enthalpies=           -1089.980695
 Sum of electronic and thermal Free Energies=        -1090.038982

                     E (Thermal)             CV                S
                      KCal/Mol        Cal/Mol-Kelvin    Cal/Mol-Kelvin
 Total                  239.337             62.780            122.676
 Electronic               0.000              0.000              0.000
 Translational            0.889              2.981             43.314
 Rotational               0.889              2.981             35.391
 Vibrational            237.560             56.818             43.970
 Vibration     1          0.594              1.983              5.730
 Vibration     2          0.602              1.954              3.601
 Vibration     3          0.606              1.943              3.302
 Vibration     4          0.608              1.937              3.186
 Vibration     5          0.620              1.897              2.614
 Vibration     6          0.637              1.841              2.140
 Vibration     7          0.642              1.825              2.042
 Vibration     8          0.654              1.789              1.846
 Vibration     9          0.660              1.771              1.764
 Vibration    10          0.674              1.728              1.595
 Vibration    11          0.748              1.518              1.049
 Vibration    12          0.763              1.478              0.977
 Vibration    13          0.768              1.465              0.954
 Vibration    14          0.786              1.418              0.878
 Vibration    15          0.806              1.368              0.806
 Vibration    16          0.821              1.332              0.757
 Vibration    17          0.842              1.282              0.695
 Vibration    18          0.867              1.224              0.629
 Vibration    19          0.882              1.190              0.593
 Vibration    20          0.890              1.173              0.576
 Vibration    21          0.905              1.141              0.545
 Vibration    22          0.923              1.102              0.509
 Vibration    23          0.929              1.091              0.500
 Vibration    24          0.952              1.044              0.460
 Vibration    25          0.959              1.030              0.448

 Normal termination of Gaussian 16 at Mon Mar  6 12:43:58 2023.
