 Gaussian 16, Revision C.01,
 Gaussian 16:  ES64L-G16RevC.01  3-Jul-2019

 ----------------------------------------------------------------------
 #p pop=(regular,nbo,savenbos) freq=noraman def2svp empiricaldispersion
 =gd3bj output=wfx pbe1pbe
 ----------------------------------------------------------------------

 ----------------------------------------
 XABNAQ_Complex_4_Ligand_1_ON_Cu_oriented
 ----------------------------------------
 Symbolic Z-matrix:
 Charge = -1 Multiplicity = 1

                         Standard orientation:
 ---------------------------------------------------------------------
 Center     Atomic      Atomic             Coordinates (Angstroms)
 Number     Number       Type             X           Y           Z
 ---------------------------------------------------------------------
      1          8           0        3.462568    0.449957   -0.466184
      2         16           0       -2.785778   -0.633256    0.155817
      3          8           0        2.612348   -1.575698   -0.293753
      4          7           0        1.255265    1.729736    0.268570
      5          1           0        0.653490    1.940850   -0.366627
      6          1           0        1.016254    2.142716    1.032155
      7          6           0        2.532247   -0.350896   -0.149315
      8          6           0        1.270412    0.250408    0.477535
      9          1           0        1.309376    0.092755    1.423890
     10          6           0       -0.008745   -0.408386   -0.027209
     11          1           0        0.095427   -1.362879   -0.031639
     12          6           0       -1.208159   -0.034437    0.844005
     13          1           0       -1.080748   -0.405611    1.720474
     14          1           0       -1.246545    0.919876    0.926333
     15          6           0       -3.185772    0.706154   -0.928086
     16          1           0       -2.491203    0.820564   -1.580091
     17          1           0       -0.175280   -0.119579   -0.927578
     18          1           0       -3.280314    1.512880   -0.416846
     19          1           0       -4.014100    0.511243   -1.375223
 ---------------------------------------------------------------------

 SCF Done:  E(RPBE1PBE) =  -798.808951429     A.U. after   15 cycles

 The electronic state is 1-A.
 Alpha  occ. eigenvalues --  -88.88050 -18.91972 -18.90640 -14.19040 -10.12349
 Alpha  occ. eigenvalues --  -10.11404 -10.08357 -10.07283 -10.05929  -7.88234
 Alpha  occ. eigenvalues --   -5.82502  -5.82110  -5.81419  -0.81681  -0.76865
 Alpha  occ. eigenvalues --   -0.73886  -0.70903  -0.67642  -0.59561  -0.52511
 Alpha  occ. eigenvalues --   -0.49840  -0.40188  -0.38548  -0.37699  -0.37118
 Alpha  occ. eigenvalues --   -0.33238  -0.31538  -0.29083  -0.27330  -0.25582
 Alpha  occ. eigenvalues --   -0.23841  -0.21302  -0.21115  -0.17623  -0.16339
 Alpha  occ. eigenvalues --   -0.12383  -0.09833  -0.03001  -0.02724  -0.00246
 Alpha virt. eigenvalues --    0.16401   0.17687   0.20949   0.22576   0.22941
 Alpha virt. eigenvalues --    0.23179   0.24997   0.27746   0.29901   0.30104
 Alpha virt. eigenvalues --    0.31971   0.32909   0.34563   0.36575   0.41113

 Mulliken charges:
               1
     1  O   -0.441736
     2  S   -0.191529
     3  O   -0.429004
     4  N   -0.077925
     5  H    0.017520
     6  H    0.019469
     7  C    0.120739
     8  C   -0.061635
     9  H   -0.059414
    10  C    0.172315
    11  H   -0.037090
    12  C    0.004704
    13  H   -0.008296
    14  H   -0.057527
    15  C    0.053781
    16  H    0.017682
    17  H   -0.055152
    18  H    0.009466
    19  H    0.003635
 Sum of Mulliken charges =  -1.00000

 Dipole moment (field-independent basis, Debye):
    X=            -12.9461    Y=              3.4932    Z=              1.8626  Tot=             13.5378
 Quadrupole moment (field-independent basis, Debye-Ang):
   XX=           -117.7329   YY=            -72.8790   ZZ=            -60.7970
   XY=             -1.5726   XZ=             10.5030   YZ=             -0.9716

  Exact polarizability:      97.270       1.322      71.291       2.211      -2.565      60.244
 Approx polarizability:     119.866       7.788     108.892       2.097      -5.207      87.793

 Summary of Natural Population Analysis:

                                       Natural Population
                Natural  -----------------------------------------------
    Atom  No    Charge         Core      Valence    Rydberg      Total
 -----------------------------------------------------------------------
      O    1   -0.78287      1.99976     6.77432    0.00879     8.78287
      S    2    0.06955      9.99936     5.89580    0.03529    15.93045
      O    3   -0.79891      1.99974     6.78919    0.00997     8.79891
      N    4   -0.79499      1.99943     5.77203    0.02353     7.79499
      H    5    0.30402      0.00000     0.68969    0.00629     0.69598
      H    6    0.30569      0.00000     0.68835    0.00597     0.69431
      C    7    0.77589      1.99944     3.15128    0.07339     5.22411
      C    8   -0.09918      1.99890     4.07602    0.02426     6.09918
      H    9    0.15807      0.00000     0.83672    0.00520     0.84193
      C   10   -0.36794      1.99901     4.34981    0.01912     6.36794
      H   11    0.19983      0.00000     0.79034    0.00983     0.80017
      C   12   -0.43238      1.99891     4.41732    0.01615     6.43238
      H   13    0.18949      0.00000     0.80698    0.00353     0.81051
      H   14    0.16809      0.00000     0.82053    0.01138     0.83191
      C   15   -0.63271      1.99904     4.62478    0.00889     6.63271
      H   16    0.18979      0.00000     0.80681    0.00340     0.81021
      H   17    0.16869      0.00000     0.82677    0.00454     0.83131
      H   18    0.18352      0.00000     0.81335    0.00313     0.81648
      H   19    0.19636      0.00000     0.80170    0.00193     0.80364
 =======================================================================
   * Total *   -1.00000     25.99360    53.73181    0.27459    80.00000

 ******   14 imaginary frequencies (negative Signs) ******

                      1                      2                      3
                      A                      A                      A
 Frequencies --  -1571.2711             -1400.9660             -1378.6739
 Red. masses --      1.0382                 1.0110                 1.1360
 Frc consts  --      1.5102                 1.1691                 1.2722
 IR Inten    --     39.9774                 0.9910               216.5398

                      4                      5                      6
                      A                      A                      A
 Frequencies --  -1205.8658             -1142.0812             -1009.6156
 Red. masses --      1.0342                 1.0363                 1.0384
 Frc consts  --      0.8860                 0.7964                 0.6236
 IR Inten    --      3.9770                 0.7489                18.2376

                      7                      8                      9
                      A                      A                      A
 Frequencies --   -994.7175              -963.1079              -745.3829
 Red. masses --      1.0454                 1.0887                 1.0984
 Frc consts  --      0.6094                 0.5950                 0.3596
 IR Inten    --      9.1587                 4.3419                 1.5588

                     10                     11                     12
                      A                      A                      A
 Frequencies --   -714.4491              -684.6982              -591.4745
 Red. masses --      1.1497                 1.1615                 1.3099
 Frc consts  --      0.3458                 0.3208                 0.2700
 IR Inten    --      7.2339                 5.2095                 6.1892

                     13                     14                     15
                      A                      A                      A
 Frequencies --   -561.7457              -392.9784               117.4442
 Red. masses --      1.3021                 1.6872                 8.1012
 Frc consts  --      0.2421                 0.1535                 0.0658
 IR Inten    --     13.7321                 0.7779                 0.5201

                     16                     17                     18
                      A                      A                      A
 Frequencies --    159.1429               199.8611               273.9358
 Red. masses --      6.4722                 1.4139                 5.6990
 Frc consts  --      0.0966                 0.0333                 0.2520
 IR Inten    --      5.2268                 1.5861                 1.5282

                     19                     20                     21
                      A                      A                      A
 Frequencies --    284.9009               382.1682               439.4138
 Red. masses --      7.1341                 8.9608                 6.7719
 Frc consts  --      0.3412                 0.7711                 0.7704
 IR Inten    --      4.8586                 0.6283                 3.4880

                     22                     23                     24
                      A                      A                      A
 Frequencies --    487.9639               559.6328               671.1462
 Red. masses --      3.7559                 5.1503                 3.2758
 Frc consts  --      0.5269                 0.9504                 0.8694
 IR Inten    --     18.1302                 0.7586                22.0478

                     25                     26                     27
                      A                      A                      A
 Frequencies --    685.7993               749.0225               796.1881
 Red. masses --      2.9362                 2.9893                 4.3511
 Frc consts  --      0.8136                 0.9881                 1.6251
 IR Inten    --     11.8441                 0.3183                24.7233

                     28                     29                     30
                      A                      A                      A
 Frequencies --    847.0893               858.3647               867.2703
 Red. masses --      2.8887                 4.2326                 1.9442
 Frc consts  --      1.2213                 1.8374                 0.8616
 IR Inten    --      8.2215                14.9293                 4.3814

                     31                     32                     33
                      A                      A                      A
 Frequencies --    888.1914               906.9111               946.2297
 Red. masses --      2.0608                 1.5110                 1.4701
 Frc consts  --      0.9579                 0.7322                 0.7755
 IR Inten    --      7.9974                 3.9747                 5.7043

                     34                     35                     36
                      A                      A                      A
 Frequencies --    956.5267               999.8663              1028.9699
 Red. masses --      1.0387                 1.0408                 3.2760
 Frc consts  --      0.5599                 0.6131                 2.0436
 IR Inten    --     16.7141                15.7015                19.0419

                     37                     38                     39
                      A                      A                      A
 Frequencies --   1087.4461              1140.4515              1163.8810
 Red. masses --      4.0163                 3.9448                 5.1071
 Frc consts  --      2.7983                 3.0229                 4.0761
 IR Inten    --     11.3281                 9.8359                11.2828

                     40                     41                     42
                      A                      A                      A
 Frequencies --   1456.1884              1782.9258              4467.8041
 Red. masses --     12.3615                12.8958                 1.0313
 Frc consts  --     15.4439                24.1527                12.1284
 IR Inten    --    284.0809               411.5454                13.1975

                     43                     44                     45
                      A                      A                      A
 Frequencies --   4545.0195              4556.9233              4605.3728
 Red. masses --      1.0601                 1.0591                 1.0870
 Frc consts  --     12.9023                12.9578                13.5829
 IR Inten    --      7.2250                 8.0790                16.1935

                     46                     47                     48
                      A                      A                      A
 Frequencies --   4674.2035              4676.5622              4680.8457
 Red. masses --      1.1071                 1.1092                 1.1077
 Frc consts  --     14.2510                14.2921                14.2994
 IR Inten    --      1.2184                 4.1682                 0.5462

                     49                     50                     51
                      A                      A                      A
 Frequencies --   4692.2388              5102.1127              5241.7875
 Red. masses --      1.1089                 1.0500                 1.0955
 Frc consts  --     14.3852                16.1036                17.7347
 IR Inten    --      3.4851                 2.8901                 2.3451

 - Thermochemistry -
 -------------------
 Temperature   298.150 Kelvin.  Pressure   1.00000 Atm.
 Atom     1 has atomic number  8 and mass  15.99491

 Molecular mass:   148.04323 amu.
 Principal axes and moments of inertia in atomic units:
                           1         2         3
     Eigenvalues --   582.621093166.244143456.32102
           X            0.99987  -0.00899   0.01314
           Y            0.00911   0.99992  -0.00932
           Z           -0.01305   0.00944   0.99987
 This molecule is an asymmetric top.
 Rotational symmetry number  1.
 Warning -- assumption of classical behavior for rotation
           may cause significant error
 Rotational temperatures (Kelvin)      0.14866     0.02736     0.02506
 Rotational constants (GHZ):           3.09762     0.56999     0.52216
   14 imaginary frequencies ignored.
 Zero-point vibrational energy     406609.5 (Joules/Mol)
                                   97.18201 (Kcal/Mol)
 Warning -- explicit consideration of   9 degrees of freedom as
           vibrations may cause significant error
 Vibrational temperatures:    168.98   228.97   287.56   394.13   409.91
          (Kelvin)            549.85   632.22   702.07   805.19   965.63
                              986.71  1077.68  1145.54  1218.77  1235.00
                             1247.81  1277.91  1304.84  1361.41  1376.23
                             1438.58  1480.46  1564.59  1640.86  1674.57
                             2095.13  2565.23  6428.17  6539.27  6556.40
                             6626.10  6725.14  6728.53  6734.69  6751.09
                             7340.80  7541.76

 Zero-point correction=                           0.154869 (Hartree/Particle)
 Thermal correction to Energy=                    0.162451
 Thermal correction to Enthalpy=                  0.163396
 Thermal correction to Gibbs Free Energy=         0.121773
 Sum of electronic and zero-point Energies=           -798.654082
 Sum of electronic and thermal Energies=              -798.646500
 Sum of electronic and thermal Enthalpies=            -798.645556
 Sum of electronic and thermal Free Energies=         -798.687178

                     E (Thermal)             CV                S
                      KCal/Mol        Cal/Mol-Kelvin    Cal/Mol-Kelvin
 Total                  101.940             28.639             87.601
 Electronic               0.000              0.000              0.000
 Translational            0.889              2.981             40.887
 Rotational               0.889              2.981             30.234
 Vibrational            100.162             22.678             16.480
 Vibration     1          0.608              1.935              3.142
 Vibration     2          0.621              1.892              2.560
 Vibration     3          0.638              1.840              2.134
 Vibration     4          0.676              1.721              1.571
 Vibration     5          0.683              1.702              1.504
 Vibration     6          0.752              1.508              1.031
 Vibration     7          0.799              1.384              0.828
 Vibration     8          0.844              1.277              0.689
 Vibration     9          0.915              1.119              0.525

 Normal termination of Gaussian 16 at Mon Mar  6 10:30:47 2023.
