 Gaussian 16, Revision C.01,
 Gaussian 16:  ES64L-G16RevC.01  3-Jul-2019

 ----------------------------------------------------------------------
 #p pop=(regular,nbo,savenbos) freq=noraman def2svp empiricaldispersion
 =gd3bj output=wfx pbe1pbe
 ----------------------------------------------------------------------

 ----------------------------------------
 XAJSAD_Complex_3_Ligand_0_NN_Cu_oriented
 ----------------------------------------
 Symbolic Z-matrix:
 Charge = -1 Multiplicity = 1

                         Standard orientation:
 ---------------------------------------------------------------------
 Center     Atomic      Atomic             Coordinates (Angstroms)
 Number     Number       Type             X           Y           Z
 ---------------------------------------------------------------------
      1          7           0       -1.406854    1.021655    1.052917
      2          7           0       -0.208379   -1.151385    2.153965
      3          8           0        0.859909   -1.722661    2.842146
      4          6           0       -1.990566    0.060207    0.176945
      5          6           0       -1.537263   -1.266121    0.165103
      6          6           0       -2.151882   -2.178646   -0.696473
      7          6           0       -3.171172   -1.791690   -1.524247
      8          6           0       -3.606328   -0.494413   -1.520738
      9          1           0       -4.306702   -0.231341   -2.089886
     10          6           0       -3.011669    0.429283   -0.674969
     11          1           0       -3.307550    1.322354   -0.682945
     12          6           0       -0.426391   -1.732408    1.022375
     13         16           0       -0.428805    2.097494    0.394834
     14          8           0        0.007682    2.932102    1.507152
     15          8           0       -1.023149    2.749790   -0.733998
     16          6           0        0.987591    1.235558   -0.207412
     17          6           0        2.008815    0.881599    0.652809
     18          1           0        1.972051    1.138132    1.556494
     19          6           0        2.111929    0.104734   -1.985921
     20          1           0        2.142834   -0.162471   -2.886484
     21          6           0        1.034336    0.842892   -1.543813
     22          1           0        0.341460    1.075727   -2.134378
     23          6           0        0.460877   -2.858785    0.556889
     24          1           0        0.192414   -3.135123   -0.333792
     25          1           0        0.380042   -3.608542    1.166602
     26          1           0        1.382607   -2.555596    0.537542
     27          6           0        3.079645    0.151536    0.187926
     28          1           0        3.776314   -0.076732    0.776763
     29          6           0        3.146665   -0.250620   -1.141880
     30          6           0        4.310959   -1.074320   -1.634142
     31          1           0        4.190654   -1.997935   -1.361905
     32          1           0        5.132984   -0.729580   -1.255062
     33          1           0        4.354129   -1.026122   -2.602047
     34          1           0       -3.573604   -2.420022   -2.094936
     35          1           0        1.120943   -1.199936    3.431048
     36          1           0       -1.859868   -3.071311   -0.709630
 ---------------------------------------------------------------------

 SCF Done:  E(RPBE1PBE) =  -1311.71163481     A.U. after   15 cycles

 The electronic state is 1-A.
 Alpha  occ. eigenvalues --  -89.03719 -19.11069 -19.00916 -18.99769 -14.29547
 Alpha  occ. eigenvalues --  -14.17037 -10.14279 -10.13268 -10.12260 -10.11657
 Alpha  occ. eigenvalues --  -10.10821 -10.10749 -10.10748 -10.10654 -10.10598
 Alpha  occ. eigenvalues --  -10.10546 -10.09515 -10.09039 -10.08683 -10.08354
 Alpha  occ. eigenvalues --  -10.07478  -8.00425  -5.94631  -5.94556  -5.94492
 Alpha  occ. eigenvalues --   -0.99538  -0.95645  -0.83099  -0.78474  -0.77706
 Alpha  occ. eigenvalues --   -0.75303  -0.71698  -0.70289  -0.66855  -0.65995
 Alpha  occ. eigenvalues --   -0.63857  -0.63164  -0.61578  -0.53563  -0.53461
 Alpha  occ. eigenvalues --   -0.52237  -0.50391  -0.47839  -0.46466  -0.42964
 Alpha  occ. eigenvalues --   -0.40258  -0.39283  -0.38794  -0.38012  -0.37205
 Alpha  occ. eigenvalues --   -0.36869  -0.35807  -0.35388  -0.34401  -0.34094
 Alpha  occ. eigenvalues --   -0.33145  -0.32766  -0.31827  -0.31148  -0.29890
 Alpha  occ. eigenvalues --   -0.28690  -0.28338  -0.27052  -0.26573  -0.26423
 Alpha  occ. eigenvalues --   -0.25416  -0.25229  -0.24158  -0.18835  -0.17999
 Alpha  occ. eigenvalues --   -0.16893  -0.16052  -0.15712  -0.15088  -0.14601
 Alpha  occ. eigenvalues --   -0.13334  -0.12084  -0.11842  -0.07521  -0.05162
 Alpha virt. eigenvalues --    0.09655   0.10665   0.11217   0.13762   0.16582
 Alpha virt. eigenvalues --    0.18059   0.19618   0.20355   0.21363   0.22080
 Alpha virt. eigenvalues --    0.23667   0.23845   0.25152   0.26653   0.27146

 Mulliken charges:
               1
     1  N   -0.455345
     2  N   -0.031262
     3  O   -0.180846
     4  C    0.050128
     5  C    0.084872
     6  C    0.027487
     7  C    0.077849
     8  C    0.089352
     9  H   -0.118011
    10  C    0.100324
    11  H   -0.132634
    12  C   -0.217697
    13  S    0.853506
    14  O   -0.548703
    15  O   -0.515376
    16  C   -0.092234
    17  C    0.147119
    18  H   -0.111568
    19  C    0.052492
    20  H   -0.127697
    21  C    0.130851
    22  H   -0.104614
    23  C    0.301210
    24  H   -0.043026
    25  H   -0.025187
    26  H   -0.011669
    27  C    0.050448
    28  H   -0.129314
    29  C   -0.146143
    30  C    0.264487
    31  H   -0.009575
    32  H   -0.024486
    33  H   -0.037721
    34  H   -0.126869
    35  H    0.093729
    36  H   -0.133878
 Sum of Mulliken charges =  -1.00000

 Dipole moment (field-independent basis, Debye):
    X=              5.1845    Y=             -7.4263    Z=             -3.3488  Tot=              9.6563
 Quadrupole moment (field-independent basis, Debye-Ang):
   XX=           -139.1283   YY=           -158.8471   ZZ=           -137.2806
   XY=              1.3657   XZ=              5.2911   YZ=             -2.2802

  Exact polarizability:     216.883     -14.416     169.305      26.996      15.898     170.474
 Approx polarizability:     309.111     -33.220     272.487      58.242      39.784     312.307

 Summary of Natural Population Analysis:

                                       Natural Population
                Natural  -----------------------------------------------
    Atom  No    Charge         Core      Valence    Rydberg      Total
 -----------------------------------------------------------------------
      N    1   -0.96681      1.99931     5.95211    0.01540     7.96681
      N    2   -0.14688      1.99916     5.12524    0.02247     7.14688
      O    3   -0.55927      1.99968     6.54214    0.01744     8.55927
      C    4    0.19781      1.99884     3.77619    0.02716     5.80219
      C    5   -0.11712      1.99881     4.10024    0.01806     6.11712
      C    6   -0.17960      1.99903     4.16615    0.01442     6.17960
      C    7   -0.22718      1.99910     4.21286    0.01522     6.22718
      C    8   -0.18064      1.99911     4.16706    0.01447     6.18064
      H    9    0.16129      0.00000     0.83533    0.00338     0.83871
      C   10   -0.18963      1.99895     4.17274    0.01794     6.18963
      H   11    0.18966      0.00000     0.80581    0.00453     0.81034
      C   12    0.24414      1.99916     3.72435    0.03235     5.75586
      S   13    2.30136      9.99789     3.46269    0.23805    13.69864
      O   14   -0.99565      1.99978     6.98756    0.00831     8.99565
      O   15   -1.00853      1.99976     7.00028    0.00849     9.00853
      C   16   -0.28813      1.99885     4.25929    0.02999     6.28813
      C   17   -0.14437      1.99898     4.12551    0.01988     6.14437
      H   18    0.19123      0.00000     0.80376    0.00501     0.80877
      C   19   -0.20166      1.99897     4.18737    0.01532     6.20166
      H   20    0.16739      0.00000     0.82931    0.00329     0.83261
      C   21   -0.15074      1.99899     4.13350    0.01824     6.15074
      H   22    0.19344      0.00000     0.80257    0.00399     0.80656
      C   23   -0.60339      1.99913     4.59397    0.01030     6.60339
      H   24    0.19087      0.00000     0.80672    0.00241     0.80913
      H   25    0.20015      0.00000     0.79679    0.00306     0.79985
      H   26    0.21330      0.00000     0.78307    0.00363     0.78670
      C   27   -0.19991      1.99898     4.18537    0.01557     6.19991
      H   28    0.16724      0.00000     0.82942    0.00334     0.83276
      C   29   -0.02612      1.99903     4.01220    0.01489     6.02612
      C   30   -0.56416      1.99916     4.55592    0.00908     6.56416
      H   31    0.19519      0.00000     0.80196    0.00285     0.80481
      H   32    0.19011      0.00000     0.80713    0.00276     0.80989
      H   33    0.18834      0.00000     0.80894    0.00272     0.81166
      H   34    0.16158      0.00000     0.83504    0.00338     0.83842
      H   35    0.43228      0.00000     0.56109    0.00662     0.56772
      H   36    0.16438      0.00000     0.83211    0.00351     0.83562
 =======================================================================
   * Total *   -1.00000     49.98066   109.38180    0.63754   160.00000

 ******   24 imaginary frequencies (negative Signs) ******

                      1                      2                      3
                      A                      A                      A
 Frequencies --  -1945.1813             -1403.9837             -1366.3754
 Red. masses --      1.0742                 1.1005                 1.0806
 Frc consts  --      2.3948                 1.2781                 1.1886
 IR Inten    --    171.5754               115.1530                53.9516

                      4                      5                      6
                      A                      A                      A
 Frequencies --  -1334.7442             -1328.3198             -1325.2181
 Red. masses --      1.0310                 1.0427                 1.0115
 Frc consts  --      1.0822                 1.0839                 1.0466
 IR Inten    --     14.3375                22.8044                 3.2281

                      7                      8                      9
                      A                      A                      A
 Frequencies --  -1281.6929             -1264.7981             -1184.2457
 Red. masses --      1.0466                 1.0426                 1.0262
 Frc consts  --      1.0130                 0.9827                 0.8480
 IR Inten    --      0.3403                 0.2720                 2.0558

                     10                     11                     12
                      A                      A                      A
 Frequencies --  -1148.9306             -1128.2750             -1097.9477
 Red. masses --      1.0169                 1.0393                 1.0339
 Frc consts  --      0.7909                 0.7795                 0.7344
 IR Inten    --      0.0952                 1.0033                 0.4185

                     13                     14                     15
                      A                      A                      A
 Frequencies --   -939.9120              -932.9977              -899.9540
 Red. masses --      1.0576                 1.0749                 1.0527
 Frc consts  --      0.5505                 0.5513                 0.5023
 IR Inten    --      1.9514                 7.7469                 1.4434

                     16                     17                     18
                      A                      A                      A
 Frequencies --   -892.5437              -813.7141              -778.6271
 Red. masses --      1.0452                 1.0930                 1.1628
 Frc consts  --      0.4906                 0.4264                 0.4153
 IR Inten    --      3.8940                 0.3420                 2.7166

                     19                     20                     21
                      A                      A                      A
 Frequencies --   -763.7085              -747.2740              -700.4156
 Red. masses --      1.0449                 1.1657                 1.1523
 Frc consts  --      0.3591                 0.3835                 0.3331
 IR Inten    --     13.8002                 6.6578                 0.2004

                     22                     23                     24
                      A                      A                      A
 Frequencies --   -623.2276              -604.0897              -561.0530
 Red. masses --      1.1494                 1.0887                 1.0403
 Frc consts  --      0.2630                 0.2341                 0.1929
 IR Inten    --      4.7252                14.8190                10.8562

                     25                     26                     27
                      A                      A                      A
 Frequencies --     36.3470                61.2819                71.9628
 Red. masses --      8.1596                 6.9106                11.3690
 Frc consts  --      0.0064                 0.0153                 0.0347
 IR Inten    --      0.6240                 0.0792                 0.7745

                     28                     29                     30
                      A                      A                      A
 Frequencies --    120.7139               149.6895               194.4119
 Red. masses --      9.1892                 7.5328                 8.7875
 Frc consts  --      0.0789                 0.0994                 0.1957
 IR Inten    --      0.1011                 0.7305                 1.3549

                     31                     32                     33
                      A                      A                      A
 Frequencies --    204.8455               216.2696               242.8267
 Red. masses --      9.1154                 7.1555                10.6253
 Frc consts  --      0.2254                 0.1972                 0.3691
 IR Inten    --      2.8247                 4.2959                 0.1280

                     34                     35                     36
                      A                      A                      A
 Frequencies --    277.4920               300.6340               308.0119
 Red. masses --      9.8684                 9.6864                 8.7392
 Frc consts  --      0.4477                 0.5158                 0.4885
 IR Inten    --      3.3330                 1.7034                 2.8009

                     37                     38                     39
                      A                      A                      A
 Frequencies --    352.8547               384.0729               391.8141
 Red. masses --      9.3547                 8.3052                 9.1433
 Frc consts  --      0.6862                 0.7218                 0.8270
 IR Inten    --     18.9147                 1.6909                 0.6144

                     40                     41                     42
                      A                      A                      A
 Frequencies --    439.8477               445.5431               456.3782
 Red. masses --      5.9610                 8.8996                 7.7984
 Frc consts  --      0.6795                 1.0409                 0.9570
 IR Inten    --      6.0323                 2.5994                 1.9580

                     43                     44                     45
                      A                      A                      A
 Frequencies --    510.4114               521.6719               532.1708
 Red. masses --      6.3190                11.4346                10.8508
 Frc consts  --      0.9699                 1.8334                 1.8106
 IR Inten    --      4.7334                44.3050                 0.2072

                     46                     47                     48
                      A                      A                      A
 Frequencies --    559.6732               571.7843               583.5587
 Red. masses --      1.1518                 9.1401                 1.2171
 Frc consts  --      0.2126                 1.7606                 0.2442
 IR Inten    --      1.8066                29.5056                24.8035

                     49                     50                     51
                      A                      A                      A
 Frequencies --    596.4707               614.6421               644.0025
 Red. masses --      9.9771                 9.4154                 7.3220
 Frc consts  --      2.0914                 2.0957                 1.7892
 IR Inten    --     58.5259                40.6673                 3.0843

                     52                     53                     54
                      A                      A                      A
 Frequencies --    669.9681               698.5761               702.8169
 Red. masses --      7.0234                 8.5504                 6.6769
 Frc consts  --      1.8574                 2.4585                 1.9432
 IR Inten    --     17.0097                12.3505                25.1667

                     55                     56                     57
                      A                      A                      A
 Frequencies --    709.2602               759.7898               761.9168
 Red. masses --      6.5992                 4.2590                 5.5741
 Frc consts  --      1.9559                 1.4486                 1.9065
 IR Inten    --     18.6041                 1.6427                23.8107

                     58                     59                     60
                      A                      A                      A
 Frequencies --    782.7442               814.8484               837.6639
 Red. masses --      5.8739                 6.6027                 7.2305
 Frc consts  --      2.1204                 2.5830                 2.9892
 IR Inten    --      3.2646                 6.5937                 6.1956

                     61                     62                     63
                      A                      A                      A
 Frequencies --    855.4541               897.4943               904.5737
 Red. masses --      6.1121                 4.9894                 4.8047
 Frc consts  --      2.6353                 2.3679                 2.3163
 IR Inten    --     26.3253                 8.1981                 7.2237

                     64                     65                     66
                      A                      A                      A
 Frequencies --    977.5594              1006.9579              1027.1052
 Red. masses --      3.1275                 9.6623                 1.6589
 Frc consts  --      1.7609                 5.7723                 1.0311
 IR Inten    --    117.8698               103.3623                15.0760

                     67                     68                     69
                      A                      A                      A
 Frequencies --   1044.2816              1068.9009              1076.4951
 Red. masses --      1.0501                 1.0963                 1.1021
 Frc consts  --      0.6747                 0.7380                 0.7525
 IR Inten    --     10.2540                 9.9966                10.4077

                     70                     71                     72
                      A                      A                      A
 Frequencies --   1105.2892              1109.8665              1215.5373
 Red. masses --      4.9349                 6.7448                13.0934
 Frc consts  --      3.5521                 4.8951                11.3983
 IR Inten    --      8.6571                16.3609               480.5123

                     73                     74                     75
                      A                      A                      A
 Frequencies --   1228.0678              1248.1607              1329.2881
 Red. masses --      9.3225                 9.6574                 7.7548
 Frc consts  --      8.2837                 8.8644                 8.0734
 IR Inten    --    116.8457                87.3949                21.2788

                     76                     77                     78
                      A                      A                      A
 Frequencies --   1416.3623              1420.7202              1429.8449
 Red. masses --      8.8342                 9.0412                12.6227
 Frc consts  --     10.4416                10.7521                15.2048
 IR Inten    --      8.7345                28.0106                92.8518

                     79                     80                     81
                      A                      A                      A
 Frequencies --   1437.5230              1456.2186              1476.9076
 Red. masses --     10.8514                10.0057                 9.2756
 Frc consts  --     13.2119                12.5012                11.9207
 IR Inten    --     92.5981                66.3149                13.9467

                     82                     83                     84
                      A                      A                      A
 Frequencies --   1496.7402              1643.5602              1666.2395
 Red. masses --      9.5118                10.6923                10.5510
 Frc consts  --     12.5546                17.0174                17.2592
 IR Inten    --     11.1412                48.4267                 2.0294

                     85                     86                     87
                      A                      A                      A
 Frequencies --   1688.0924              1699.1549              1719.4469
 Red. masses --     11.2388                10.2180                10.6950
 Frc consts  --     18.8695                17.3812                18.6299
 IR Inten    --     10.9441                 2.3471                 8.1084

                     88                     89                     90
                      A                      A                      A
 Frequencies --   4351.9933              4352.2117              4544.6912
 Red. masses --      1.0324                 1.0322                 1.1065
 Frc consts  --     11.5209                11.5198                13.4655
 IR Inten    --      6.8044                19.8337                 2.9159

                     91                     92                     93
                      A                      A                      A
 Frequencies --   4548.8404              4551.3293              4561.4952
 Red. masses --      1.1064                 1.1062                 1.1068
 Frc consts  --     13.4882                13.5003                13.5684
 IR Inten    --      0.7743                 1.3318                 3.3838

                     94                     95                     96
                      A                      A                      A
 Frequencies --   4885.2706              4887.0249              4891.3268
 Red. masses --      1.0862                 1.0881                 1.0882
 Frc consts  --     15.2738                15.3115                15.3399
 IR Inten    --      1.7267                 4.2706                 5.7376

                     97                     98                     99
                      A                      A                      A
 Frequencies --   4894.5910              4900.4017              4906.2310
 Red. masses --      1.0883                 1.0903                 1.0906
 Frc consts  --     15.3616                15.4269                15.4668
 IR Inten    --      3.4988                 4.0501                 2.0041

                    100                    101                    102
                      A                      A                      A
 Frequencies --   4908.6878              4913.3612              6111.5071
 Red. masses --      1.0923                 1.0905                 1.0678
 Frc consts  --     15.5068                15.5110                23.4984
 IR Inten    --     10.0918                 2.0729               185.7395

 - Thermochemistry -
 -------------------
 Temperature   298.150 Kelvin.  Pressure   1.00000 Atm.
 Atom     1 has atomic number  7 and mass  14.00307

 Molecular mass:   303.08034 amu.
 Principal axes and moments of inertia in atomic units:
                           1         2         3
     Eigenvalues --  4866.978516517.115137651.37970
           X            0.99971  -0.02401   0.00020
           Y            0.02400   0.99960   0.01514
           Z           -0.00056  -0.01513   0.99989
 This molecule is an asymmetric top.
 Rotational symmetry number  1.
 Warning -- assumption of classical behavior for rotation
           may cause significant error
 Rotational temperatures (Kelvin)      0.01780     0.01329     0.01132
 Rotational constants (GHZ):           0.37081     0.27692     0.23587
   24 imaginary frequencies ignored.
 Zero-point vibrational energy     737986.9 (Joules/Mol)
                                  176.38310 (Kcal/Mol)
 Warning -- explicit consideration of  26 degrees of freedom as
           vibrations may cause significant error
 Vibrational temperatures:     52.30    88.17   103.54   173.68   215.37
          (Kelvin)            279.72   294.73   311.16   349.37   399.25
                              432.55   443.16   507.68   552.60   563.73
                              632.84   641.04   656.63   734.37   750.57
                              765.68   805.24   822.67   839.61   858.19
                              884.33   926.58   963.93  1005.10  1011.20
                             1020.47  1093.17  1096.23  1126.19  1172.39
                             1205.21  1230.81  1291.29  1301.48  1406.49
                             1448.79  1477.78  1502.49  1537.91  1548.84
                             1590.26  1596.85  1748.89  1766.92  1795.82
                             1912.55  2037.83  2044.10  2057.23  2068.27
                             2095.17  2124.94  2153.48  2364.72  2397.35
                             2428.79  2444.70  2473.90  6261.55  6261.86
                             6538.80  6544.77  6548.35  6562.97  7028.81
                             7031.34  7037.53  7042.22  7050.59  7058.97
                             7062.51  7069.23  8793.10

 Zero-point correction=                           0.281084 (Hartree/Particle)
 Thermal correction to Energy=                    0.295952
 Thermal correction to Enthalpy=                  0.296896
 Thermal correction to Gibbs Free Energy=         0.238547
 Sum of electronic and zero-point Energies=          -1311.430550
 Sum of electronic and thermal Energies=             -1311.415683
 Sum of electronic and thermal Enthalpies=           -1311.414739
 Sum of electronic and thermal Free Energies=        -1311.473088

                     E (Thermal)             CV                S
                      KCal/Mol        Cal/Mol-Kelvin    Cal/Mol-Kelvin
 Total                  185.712             58.938            122.806
 Electronic               0.000              0.000              0.000
 Translational            0.889              2.981             43.023
 Rotational               0.889              2.981             33.850
 Vibrational            183.935             52.976             45.933
 Vibration     1          0.594              1.982              5.449
 Vibration     2          0.597              1.973              4.415
 Vibration     3          0.598              1.967              4.099
 Vibration     4          0.609              1.932              3.089
 Vibration     5          0.618              1.903              2.676
 Vibration     6          0.635              1.848              2.185
 Vibration     7          0.640              1.833              2.089
 Vibration     8          0.645              1.816              1.990
 Vibration     9          0.659              1.775              1.782
 Vibration    10          0.678              1.715              1.549
 Vibration    11          0.693              1.672              1.413
 Vibration    12          0.698              1.658              1.373
 Vibration    13          0.729              1.569              1.153
 Vibration    14          0.753              1.504              1.023
 Vibration    15          0.759              1.488              0.993
 Vibration    16          0.800              1.383              0.827
 Vibration    17          0.805              1.371              0.809
 Vibration    18          0.815              1.347              0.777
 Vibration    19          0.866              1.227              0.633
 Vibration    20          0.877              1.202              0.606
 Vibration    21          0.887              1.179              0.582
 Vibration    22          0.915              1.119              0.524
 Vibration    23          0.928              1.092              0.501
 Vibration    24          0.940              1.067              0.479
 Vibration    25          0.954              1.039              0.456
 Vibration    26          0.974              1.001              0.425

 Normal termination of Gaussian 16 at Mon Mar  6 11:37:44 2023.
