 Gaussian 16, Revision C.01,
 Gaussian 16:  ES64L-G16RevC.01  3-Jul-2019

 ----------------------------------------------------------------------
 #p pop=(regular,nbo,savenbos) freq=noraman def2svp empiricaldispersion
 =gd3bj output=wfx pbe1pbe
 ----------------------------------------------------------------------

 ----------------------------------------
 XAZTOH_Complex_4_Ligand_1_NN_Cu_oriented
 ----------------------------------------
 Symbolic Z-matrix:
 Charge =  0 Multiplicity = 1

                         Standard orientation:
 ---------------------------------------------------------------------
 Center     Atomic      Atomic             Coordinates (Angstroms)
 Number     Number       Type             X           Y           Z
 ---------------------------------------------------------------------
      1          7           0       -1.323166    0.075326   -0.439118
      2          8           0       -1.943866    2.149543   -0.976964
      3          7           0        1.294924   -0.090161    0.685023
      4          6           0        0.158954    2.086314    0.101525
      5          6           0       -2.621116   -0.118236   -1.128531
      6          1           0       -2.461691   -0.614192   -1.969500
      7          6           0       -1.058164    1.319149   -0.389423
      8          6           0        2.572039   -0.494748    1.305241
      9          1           0        2.408841   -1.177939    2.003045
     10          6           0        3.039730    0.842691    1.964224
     11          1           0        2.926296    0.815818    2.936914
     12          1           0        3.979565    1.029720    1.756157
     13          6           0        0.825394    2.750944   -1.060642
     14          1           0        1.138474    2.076624   -1.683622
     15          1           0        1.579583    3.273320   -0.745537
     16          1           0        0.190688    3.333827   -1.506622
     17          6           0        3.578001   -1.014435    0.295229
     18          8           0        2.153490    1.841677    1.354833
     19          6           0        5.537301   -2.344476   -0.185682
     20          1           0        6.224277   -2.914289    0.113116
     21          6           0        4.590120   -1.874997    0.721660
     22          1           0        4.633806   -2.137819    1.622262
     23          6           0        3.553383   -0.630070   -1.026219
     24          1           0        2.902015   -0.023060   -1.323071
     25          6           0        4.493189   -1.138545   -1.933025
     26          1           0        4.446610   -0.896109   -2.839734
     27          6           0        1.175410    1.165680    0.722805
     28          6           0        5.482670   -1.990047   -1.509287
     29          1           0        6.115359   -2.325316   -2.119624
     30          6           0       -3.012941    1.325445   -1.482401
     31          6           0       -0.325219    3.149139    1.095383
     32          1           0        0.432744    3.656601    1.423438
     33          1           0       -0.771080    2.715256    1.840286
     34          1           0       -0.946948    3.747252    0.650633
     35          6           0       -4.548699   -1.963469    1.579310
     36          1           0       -4.419326   -2.269830    2.459533
     37          6           0       -3.706270   -0.850144   -0.336499
     38          6           0       -3.525893   -1.271338    0.966143
     39          1           0       -2.725606   -1.089442    1.424920
     40          6           0       -5.734516   -2.226359    0.968473
     41          1           0       -6.413923   -2.708002    1.404628
     42          6           0       -5.902296   -1.744364   -0.350131
     43          1           0       -6.720945   -1.883513   -0.790647
     44          6           0       -4.905230   -1.085977   -0.987684
     45          1           0       -3.864446    1.568978   -1.059581
     46          1           0       -5.026195   -0.789575   -1.871864
     47          1           0       -3.102472    1.432843   -2.452215
 ---------------------------------------------------------------------

 SCF Done:  E(RPBE1PBE) =  -1071.09177299     A.U. after   14 cycles

 The electronic state is 1-A.
 Alpha  occ. eigenvalues --  -19.24320 -19.24219 -14.35963 -14.35610 -10.31568
 Alpha  occ. eigenvalues --  -10.31259 -10.26944 -10.26817 -10.26458 -10.25860
 Alpha  occ. eigenvalues --  -10.25537 -10.23645 -10.23558 -10.21830 -10.21643
 Alpha  occ. eigenvalues --  -10.21631 -10.21606 -10.21377 -10.21369 -10.21354
 Alpha  occ. eigenvalues --  -10.21244 -10.21053 -10.20968 -10.19460 -10.19351
 Alpha  occ. eigenvalues --   -1.11188  -1.10597  -0.91768  -0.91050  -0.88451
 Alpha  occ. eigenvalues --   -0.87853  -0.86839  -0.80986  -0.80150  -0.77679
 Alpha  occ. eigenvalues --   -0.77192  -0.76232  -0.75616  -0.74518  -0.67971
 Alpha  occ. eigenvalues --   -0.67269  -0.66801  -0.64434  -0.63923  -0.61488
 Alpha  occ. eigenvalues --   -0.61374  -0.61140  -0.56248  -0.56174  -0.54800
 Alpha  occ. eigenvalues --   -0.52963  -0.52590  -0.51874  -0.50771  -0.49490
 Alpha  occ. eigenvalues --   -0.48813  -0.48562  -0.48054  -0.47614  -0.46589
 Alpha  occ. eigenvalues --   -0.45646  -0.45251  -0.44811  -0.44481  -0.44372
 Alpha  occ. eigenvalues --   -0.44063  -0.43102  -0.42838  -0.40111  -0.39765
 Alpha  occ. eigenvalues --   -0.39070  -0.38380  -0.38323  -0.37887  -0.37198
 Alpha  occ. eigenvalues --   -0.36651  -0.36342  -0.35937  -0.35624  -0.35322
 Alpha  occ. eigenvalues --   -0.35203  -0.28355  -0.26770  -0.26437  -0.26119
 Alpha  occ. eigenvalues --   -0.26030  -0.25624  -0.25470  -0.24416
 Alpha virt. eigenvalues --   -0.00413   0.00192   0.00323   0.00395   0.03164
 Alpha virt. eigenvalues --    0.03626   0.07625   0.08996   0.09500   0.10524
 Alpha virt. eigenvalues --    0.10738   0.11596   0.12292   0.13065   0.13608

 Mulliken charges:
               1
     1  N   -0.207456
     2  O   -0.372247
     3  N   -0.201890
     4  C   -0.392056
     5  C    0.042288
     6  H    0.003008
     7  C    0.169107
     8  C    0.019152
     9  H   -0.016102
    10  C    0.409717
    11  H   -0.004864
    12  H   -0.011512
    13  C    0.268518
    14  H   -0.010911
    15  H   -0.007868
    16  H   -0.006609
    17  C    0.001297
    18  O   -0.378045
    19  C    0.092306
    20  H   -0.084647
    21  C    0.074040
    22  H   -0.106948
    23  C    0.095231
    24  H   -0.120996
    25  C    0.099687
    26  H   -0.088588
    27  C    0.172869
    28  C    0.092329
    29  H   -0.085893
    30  C    0.396666
    31  C    0.267988
    32  H   -0.007405
    33  H   -0.016376
    34  H   -0.008789
    35  C    0.094602
    36  H   -0.084250
    37  C   -0.044696
    38  C    0.101692
    39  H   -0.096691
    40  C    0.091423
    41  H   -0.088382
    42  C    0.091710
    43  H   -0.086016
    44  C    0.081692
    45  H   -0.015372
    46  H   -0.108388
    47  H   -0.012325
 Sum of Mulliken charges =  -0.00000

 Dipole moment (field-independent basis, Debye):
    X=              0.2006    Y=              1.2088    Z=              0.0317  Tot=              1.2258
 Quadrupole moment (field-independent basis, Debye-Ang):
   XX=           -127.3907   YY=           -145.4072   ZZ=           -130.1504
   XY=             -2.0893   XZ=              6.6721   YZ=             -3.6588

  Exact polarizability:     243.355      -3.792     187.980      -0.957     -11.652     193.597
 Approx polarizability:     312.737      -7.696     287.502       5.676     -26.386     314.702

 Summary of Natural Population Analysis:

                                       Natural Population
                Natural  -----------------------------------------------
    Atom  No    Charge         Core      Valence    Rydberg      Total
 -----------------------------------------------------------------------
      N    1   -0.53411      1.99924     5.51929    0.01557     7.53411
      O    2   -0.58520      1.99967     6.57507    0.01047     8.58520
      N    3   -0.53171      1.99923     5.51639    0.01609     7.53171
      C    4   -0.14286      1.99891     4.12676    0.01719     6.14286
      C    5   -0.04521      1.99896     4.02373    0.02253     6.04521
      H    6    0.20289      0.00000     0.79308    0.00403     0.79711
      C    7    0.62814      1.99905     3.32421    0.04859     5.37186
      C    8   -0.04512      1.99895     4.02277    0.02339     6.04512
      H    9    0.20432      0.00000     0.79229    0.00339     0.79568
      C   10    0.00796      1.99887     3.97617    0.01699     5.99204
      H   11    0.16730      0.00000     0.82959    0.00311     0.83270
      H   12    0.17703      0.00000     0.82035    0.00262     0.82297
      C   13   -0.53616      1.99914     4.52399    0.01304     6.53616
      H   14    0.19762      0.00000     0.79973    0.00265     0.80238
      H   15    0.20384      0.00000     0.79315    0.00301     0.79616
      H   16    0.20582      0.00000     0.79115    0.00302     0.79418
      C   17   -0.04251      1.99897     4.02501    0.01852     6.04251
      O   18   -0.58805      1.99967     6.57811    0.01027     8.58805
      C   19   -0.16160      1.99911     4.14839    0.01411     6.16160
      H   20    0.17326      0.00000     0.82366    0.00308     0.82674
      C   21   -0.17937      1.99900     4.16543    0.01494     6.17937
      H   22    0.17277      0.00000     0.82415    0.00308     0.82723
      C   23   -0.16893      1.99897     4.15503    0.01494     6.16893
      H   24    0.18002      0.00000     0.81607    0.00391     0.81998
      C   25   -0.15434      1.99911     4.14105    0.01418     6.15434
      H   26    0.17233      0.00000     0.82467    0.00301     0.82767
      C   27    0.62297      1.99900     3.32939    0.04863     5.37703
      C   28   -0.18238      1.99910     4.16940    0.01388     6.18238
      H   29    0.17497      0.00000     0.82196    0.00307     0.82503
      C   30    0.00170      1.99888     3.98220    0.01722     5.99830
      C   31   -0.53363      1.99916     4.52075    0.01372     6.53363
      H   32    0.20409      0.00000     0.79307    0.00284     0.79591
      H   33    0.19681      0.00000     0.80073    0.00246     0.80319
      H   34    0.20441      0.00000     0.79273    0.00286     0.79559
      C   35   -0.16127      1.99909     4.14805    0.01413     6.16127
      H   36    0.17306      0.00000     0.82372    0.00322     0.82694
      C   37   -0.02755      1.99899     4.01062    0.01794     6.02755
      C   38   -0.17158      1.99897     4.15738    0.01522     6.17158
      H   39    0.19280      0.00000     0.80320    0.00400     0.80720
      C   40   -0.17958      1.99911     4.16646    0.01402     6.17958
      H   41    0.17436      0.00000     0.82273    0.00291     0.82564
      C   42   -0.15316      1.99910     4.13982    0.01423     6.15316
      H   43    0.17117      0.00000     0.82575    0.00308     0.82883
      C   44   -0.20470      1.99898     4.19092    0.01481     6.20470
      H   45    0.17365      0.00000     0.82340    0.00295     0.82635
      H   46    0.17544      0.00000     0.82125    0.00330     0.82456
      H   47    0.17028      0.00000     0.82687    0.00285     0.82972
 =======================================================================
   * Total *   -0.00000     49.97722   127.49970    0.52308   178.00000

 ******   33 imaginary frequencies (negative Signs) ******

                      1                      2                      3
                      A                      A                      A
 Frequencies --  -1368.7936             -1364.9978             -1301.2082
 Red. masses --      1.0811                 1.0821                 1.0083
 Frc consts  --      1.1934                 1.1880                 1.0058
 IR Inten    --     71.4979                71.7541                 0.0938

                      4                      5                      6
                      A                      A                      A
 Frequencies --  -1291.6101             -1277.5022             -1263.2581
 Red. masses --      1.0085                 1.0404                 1.0435
 Frc consts  --      0.9913                 1.0004                 0.9812
 IR Inten    --      0.5235                 0.4787                 0.4752

                      7                      8                      9
                      A                      A                      A
 Frequencies --  -1215.9708             -1205.0732             -1146.9619
 Red. masses --      1.0314                 1.0301                 1.0163
 Frc consts  --      0.8985                 0.8813                 0.7877
 IR Inten    --      0.0203                 0.8496                 0.0878

                     10                     11                     12
                      A                      A                      A
 Frequencies --  -1126.9644             -1058.6990             -1051.5950
 Red. masses --      1.0150                 1.0317                 1.0331
 Frc consts  --      0.7595                 0.6813                 0.6731
 IR Inten    --      0.0301                 0.0738                 0.2221

                     13                     14                     15
                      A                      A                      A
 Frequencies --   -941.5299              -936.1108              -885.5275
 Red. masses --      1.0445                 1.0541                 1.0587
 Frc consts  --      0.5455                 0.5442                 0.4892
 IR Inten    --      4.8447                 2.9870                35.7845

                     16                     17                     18
                      A                      A                      A
 Frequencies --   -864.2481              -845.8823              -840.0689
 Red. masses --      1.0477                 1.0225                 1.0585
 Frc consts  --      0.4611                 0.4311                 0.4401
 IR Inten    --      1.8907                 2.1456                 7.6097

                     19                     20                     21
                      A                      A                      A
 Frequencies --   -809.0202              -798.6532              -779.5976
 Red. masses --      1.0902                 1.0763                 1.1708
 Frc consts  --      0.4204                 0.4045                 0.4193
 IR Inten    --      0.7492                 0.4132                 1.0725

                     22                     23                     24
                      A                      A                      A
 Frequencies --   -761.4808              -721.4004              -704.7465
 Red. masses --      1.1646                 1.1461                 1.1529
 Frc consts  --      0.3979                 0.3514                 0.3374
 IR Inten    --      3.2234                 4.7352                 7.4121

                     25                     26                     27
                      A                      A                      A
 Frequencies --   -623.6661              -612.4911              -543.6352
 Red. masses --      1.1519                 1.1674                 1.0544
 Frc consts  --      0.2640                 0.2580                 0.1836
 IR Inten    --      7.3373                 8.7780                18.8916

                     28                     29                     30
                      A                      A                      A
 Frequencies --   -506.8527              -427.3344              -379.0026
 Red. masses --      1.0523                 1.7005                 1.9087
 Frc consts  --      0.1593                 0.1830                 0.1615
 IR Inten    --     22.3387                 1.8811                 0.3833

                     31                     32                     33
                      A                      A                      A
 Frequencies --   -290.7619              -265.2397              -153.8306
 Red. masses --      2.2483                 2.5289                 3.6405
 Frc consts  --      0.1120                 0.1048                 0.0508
 IR Inten    --     10.2193                 2.4882                 0.2453

                     34                     35                     36
                      A                      A                      A
 Frequencies --     30.1657                62.9570               152.0892
 Red. masses --      5.0906                 5.2806                 5.5164
 Frc consts  --      0.0027                 0.0123                 0.0752
 IR Inten    --      0.2308                 0.4587                 0.3381

                     37                     38                     39
                      A                      A                      A
 Frequencies --    165.1605               172.4227               188.0013
 Red. masses --      7.7659                 3.3705                 8.2712
 Frc consts  --      0.1248                 0.0590                 0.1722
 IR Inten    --      0.2500                 4.6006                 0.1045

                     40                     41                     42
                      A                      A                      A
 Frequencies --    198.2376               270.0840               315.3741
 Red. masses --      8.6835                 4.6821                 4.2780
 Frc consts  --      0.2011                 0.2012                 0.2507
 IR Inten    --      0.0327                 2.3688                 2.6678

                     43                     44                     45
                      A                      A                      A
 Frequencies --    334.1673               349.8413               361.6887
 Red. masses --      3.4332                 3.1623                 5.6521
 Frc consts  --      0.2259                 0.2280                 0.4356
 IR Inten    --      7.6611                 3.2884                 5.3631

                     46                     47                     48
                      A                      A                      A
 Frequencies --    428.3195               441.4442               451.8200
 Red. masses --      4.3993                 4.2166                 3.4864
 Frc consts  --      0.4755                 0.4841                 0.4193
 IR Inten    --      3.4673                 3.7239                 9.1243

                     49                     50                     51
                      A                      A                      A
 Frequencies --    472.0752               491.9994               514.3650
 Red. masses --      4.2197                 3.8628                 2.6736
 Frc consts  --      0.5541                 0.5509                 0.4168
 IR Inten    --      5.0970                 1.9039                 1.5009

                     52                     53                     54
                      A                      A                      A
 Frequencies --    530.2661               539.2696               552.7602
 Red. masses --      9.2265                 3.1885                10.6928
 Frc consts  --      1.5285                 0.5463                 1.9249
 IR Inten    --      0.1011                 8.7090                 0.0383

                     55                     56                     57
                      A                      A                      A
 Frequencies --    612.4325               633.3399               635.8545
 Red. masses --      2.2047                 1.3009                 3.5945
 Frc consts  --      0.4872                 0.3074                 0.8563
 IR Inten    --     17.6462                14.3274                 1.4264

                     58                     59                     60
                      A                      A                      A
 Frequencies --    648.4731               685.4618               689.8851
 Red. masses --      3.7482                 1.1416                 2.7296
 Frc consts  --      0.9287                 0.3160                 0.7654
 IR Inten    --      4.9427                24.1418                 9.5698

                     61                     62                     63
                      A                      A                      A
 Frequencies --    704.4576               712.5688               714.1920
 Red. masses --      2.8137                 3.7340                 2.8175
 Frc consts  --      0.8227                 1.1171                 0.8467
 IR Inten    --      1.6680                18.2644                 1.9069

                     64                     65                     66
                      A                      A                      A
 Frequencies --    729.5331               741.1437               750.6082
 Red. masses --      2.2176                 3.7118                 3.3492
 Frc consts  --      0.6954                 1.2013                 1.1118
 IR Inten    --      2.2925                 0.4272                 8.4488

                     67                     68                     69
                      A                      A                      A
 Frequencies --    762.6118               763.5093               782.6145
 Red. masses --      3.8850                 3.9731                 6.2493
 Frc consts  --      1.3312                 1.3646                 2.2552
 IR Inten    --      5.8582                 4.4971                 2.8439

                     70                     71                     72
                      A                      A                      A
 Frequencies --    787.9622               807.1041               817.3371
 Red. masses --      4.2233                 5.6869                 3.3550
 Frc consts  --      1.5449                 2.1826                 1.3205
 IR Inten    --      7.4018                 0.5693                15.8288

                     73                     74                     75
                      A                      A                      A
 Frequencies --    835.2487               844.7400               853.3085
 Red. masses --      3.7005                 3.4740                 3.3264
 Frc consts  --      1.5211                 1.4606                 1.4271
 IR Inten    --      7.5639                 2.8415                 2.1197

                     76                     77                     78
                      A                      A                      A
 Frequencies --    875.0680               914.4133               937.5719
 Red. masses --      3.3913                 4.0518                 7.4125
 Frc consts  --      1.5300                 1.9961                 3.8390
 IR Inten    --      5.2602                41.9399                16.7342

                     79                     80                     81
                      A                      A                      A
 Frequencies --    964.3540               969.2928               975.4661
 Red. masses --      5.7990                 4.1702                 5.1580
 Frc consts  --      3.1774                 2.3084                 2.8917
 IR Inten    --     57.8571                21.8167                29.1282

                     82                     83                     84
                      A                      A                      A
 Frequencies --   1002.8746              1023.5473              1032.4880
 Red. masses --      4.5752                 2.7093                 5.5525
 Frc consts  --      2.7111                 1.6723                 3.4875
 IR Inten    --     15.6595                 1.7980                21.2057

                     85                     86                     87
                      A                      A                      A
 Frequencies --   1043.7519              1050.2682              1051.8327
 Red. masses --      4.1828                 1.1888                 5.5961
 Frc consts  --      2.6848                 0.7726                 3.6478
 IR Inten    --     10.8825                 4.1357                 0.7295

                     88                     89                     90
                      A                      A                      A
 Frequencies --   1053.2379              1061.8535              1072.2204
 Red. masses --      3.7918                 1.9030                 1.0395
 Frc consts  --      2.4782                 1.2642                 0.7041
 IR Inten    --      3.6996                60.8432                 2.3532

                     91                     92                     93
                      A                      A                      A
 Frequencies --   1081.3637              1097.3670              1114.2490
 Red. masses --      1.9637                 3.6783                 1.2456
 Frc consts  --      1.3529                 2.6097                 0.9112
 IR Inten    --     22.7566                 0.8819                 8.7473

                     94                     95                     96
                      A                      A                      A
 Frequencies --   1142.2819              1196.5736              1208.2802
 Red. masses --      1.3810                 2.7251                 4.9702
 Frc consts  --      1.0616                 2.2988                 4.2752
 IR Inten    --     11.4190                88.6526                36.7880

                     97                     98                     99
                      A                      A                      A
 Frequencies --   1217.2070              1228.6690              1270.4158
 Red. masses --      4.8600                 5.5572                 6.0635
 Frc consts  --      4.2424                 4.9428                 5.7659
 IR Inten    --      8.5921                 8.1156                 9.1152

                    100                    101                    102
                      A                      A                      A
 Frequencies --   1340.8902              1345.6000              1396.3073
 Red. masses --      7.0792                 8.3049                 8.0508
 Frc consts  --      7.4993                 8.8596                 9.2481
 IR Inten    --     54.0774                 0.6195                 2.6357

                    103                    104                    105
                      A                      A                      A
 Frequencies --   1408.8538              1437.3911              1449.4165
 Red. masses --      6.9731                 8.7474                 8.8553
 Frc consts  --      8.1547                10.6483                10.9607
 IR Inten    --     94.9766                 0.7630                 1.2177

                    106                    107                    108
                      A                      A                      A
 Frequencies --   1482.7266              1495.0538              1641.7509
 Red. masses --      8.4699                 9.0503                10.6620
 Frc consts  --     10.9711                11.9187                16.9318
 IR Inten    --      2.7235                 0.3178                 4.6106

                    109                    110                    111
                      A                      A                      A
 Frequencies --   1681.7453              1710.7595              1742.4657
 Red. masses --     10.0664                 9.9907                10.4825
 Frc consts  --     16.7743                17.2276                18.7518
 IR Inten    --     10.8792                 2.2575                 3.2646

                    112                    113                    114
                      A                      A                      A
 Frequencies --   1750.4883              1813.4905              4253.5055
 Red. masses --     11.9594                12.2175                 1.0884
 Frc consts  --     21.5913                23.6736                11.6016
 IR Inten    --    145.4612               220.7614                 3.7700

                    115                    116                    117
                      A                      A                      A
 Frequencies --   4255.2706              4303.9510              4316.5637
 Red. masses --      1.0877                 1.0597                 1.0585
 Frc consts  --     11.6041                11.5654                11.6202
 IR Inten    --      3.3628                12.2168                10.0550

                    118                    119                    120
                      A                      A                      A
 Frequencies --   4350.4043              4352.8798              4425.3673
 Red. masses --      1.0328                 1.0326                 1.1119
 Frc consts  --     11.5169                11.5277                12.8291
 IR Inten    --      4.9216                 4.1495                 4.2554

                    121                    122                    123
                      A                      A                      A
 Frequencies --   4441.6939              4547.0154              4547.9659
 Red. masses --      1.1131                 1.1070                 1.1068
 Frc consts  --     12.9389                13.4845                13.4877
 IR Inten    --      4.0633                 1.5430                 1.8823

                    124                    125                    126
                      A                      A                      A
 Frequencies --   4549.7920              4558.5512              4879.3464
 Red. masses --      1.1067                 1.1069                 1.0871
 Frc consts  --     13.4983                13.5517                15.2494
 IR Inten    --      0.5144                 0.8910                 0.3293

                    127                    128                    129
                      A                      A                      A
 Frequencies --   4879.8347              4885.7285              4891.6885
 Red. masses --      1.0876                 1.0878                 1.0901
 Frc consts  --     15.2589                15.2984                15.3691
 IR Inten    --      2.1167                 0.3705                 0.5786

                    130                    131                    132
                      A                      A                      A
 Frequencies --   4900.0853              4904.7354              4906.4099
 Red. masses --      1.0903                 1.0904                 1.0899
 Frc consts  --     15.4247                15.4554                15.4578
 IR Inten    --      1.5314                 2.1514                 0.5508

                    133                    134                    135
                      A                      A                      A
 Frequencies --   4909.4871              4911.1936              4921.2777
 Red. masses --      1.0926                 1.0902                 1.0901
 Frc consts  --     15.5161                15.4925                15.5557
 IR Inten    --      1.0355                 0.3966                 0.6566

 - Thermochemistry -
 -------------------
 Temperature   298.150 Kelvin.  Pressure   1.00000 Atm.
 Atom     1 has atomic number  7 and mass  14.00307

 Molecular mass:   334.16813 amu.
 Principal axes and moments of inertia in atomic units:
                           1         2         3
     Eigenvalues --  4884.05414********************
           X            1.00000  -0.00017   0.00052
           Y            0.00017   0.99996  -0.00913
           Z           -0.00052   0.00913   0.99996
 This molecule is an asymmetric top.
 Rotational symmetry number  1.
 Warning -- assumption of classical behavior for rotation
           may cause significant error
 Rotational temperatures (Kelvin)      0.01773     0.00532     0.00478
 Rotational constants (GHZ):           0.36952     0.11089     0.09968
   33 imaginary frequencies ignored.
 Zero-point vibrational energy    1027049.3 (Joules/Mol)
                                  245.47067 (Kcal/Mol)
 Warning -- explicit consideration of  22 degrees of freedom as
           vibrations may cause significant error
 Vibrational temperatures:     43.40    90.58   218.82   237.63   248.08
          (Kelvin)            270.49   285.22   388.59   453.75   480.79
                              503.34   520.39   616.26   635.14   650.07
                              679.21   707.88   740.06   762.93   775.89
                              795.30   881.15   911.23   914.85   933.01
                              986.23   992.59  1013.56  1025.23  1027.56
                             1049.64  1066.34  1079.96  1097.23  1098.52
                             1126.01  1133.70  1161.24  1175.97  1201.74
                             1215.39  1227.72  1259.03  1315.64  1348.96
                             1387.49  1394.60  1403.48  1442.91  1472.66
                             1485.52  1501.73  1511.10  1513.35  1515.37
                             1527.77  1542.69  1555.84  1578.87  1603.16
                             1643.49  1721.60  1738.45  1751.29  1767.78
                             1827.84  1929.24  1936.02  2008.97  2027.03
                             2068.09  2085.39  2133.31  2151.05  2362.11
                             2419.66  2461.40  2507.02  2518.56  2609.21
                             6119.85  6122.39  6192.43  6210.57  6259.26
                             6262.82  6367.12  6390.61  6542.14  6543.51
                             6546.14  6558.74  7020.29  7020.99  7029.47
                             7038.05  7050.13  7056.82  7059.23  7063.66
                             7066.11  7080.62

 Zero-point correction=                           0.391182 (Hartree/Particle)
 Thermal correction to Energy=                    0.405672
 Thermal correction to Enthalpy=                  0.406616
 Thermal correction to Gibbs Free Energy=         0.348902
 Sum of electronic and zero-point Energies=          -1070.700591
 Sum of electronic and thermal Energies=             -1070.686101
 Sum of electronic and thermal Enthalpies=           -1070.685157
 Sum of electronic and thermal Free Energies=        -1070.742871

                     E (Thermal)             CV                S
                      KCal/Mol        Cal/Mol-Kelvin    Cal/Mol-Kelvin
 Total                  254.563             63.585            121.468
 Electronic               0.000              0.000              0.000
 Translational            0.889              2.981             43.314
 Rotational               0.889              2.981             35.619
 Vibrational            252.785             57.623             42.535
 Vibration     1          0.594              1.984              5.818
 Vibration     2          0.597              1.972              4.362
 Vibration     3          0.619              1.900              2.646
 Vibration     4          0.624              1.885              2.490
 Vibration     5          0.626              1.876              2.409
 Vibration     6          0.633              1.856              2.247
 Vibration     7          0.637              1.842              2.149
 Vibration     8          0.674              1.728              1.596
 Vibration     9          0.703              1.644              1.334
 Vibration    10          0.716              1.607              1.240
 Vibration    11          0.727              1.576              1.167
 Vibration    12          0.736              1.551              1.115
 Vibration    13          0.790              1.409              0.864
 Vibration    14          0.801              1.380              0.822
 Vibration    15          0.810              1.357              0.790
 Vibration    16          0.829              1.312              0.732
 Vibration    17          0.848              1.268              0.678
 Vibration    18          0.869              1.218              0.623
 Vibration    19          0.885              1.183              0.587
 Vibration    20          0.894              1.163              0.567
 Vibration    21          0.908              1.134              0.538
 Vibration    22          0.972              1.006              0.429

 Normal termination of Gaussian 16 at Sat Mar  4 13:40:21 2023.
