 Gaussian 16, Revision C.01,
 Gaussian 16:  ES64L-G16RevC.01  3-Jul-2019

 ----------------------------------------------------------------------
 #p pop=(regular,nbo,savenbos) freq=noraman def2svp empiricaldispersion
 =gd3bj output=wfx pbe1pbe
 ----------------------------------------------------------------------

 ----------------------------------------
 XECHIZ_Complex_2_Ligand_2_SS_Cu_oriented
 ----------------------------------------
 Symbolic Z-matrix:
 Charge = -1 Multiplicity = 1

                         Standard orientation:
 ---------------------------------------------------------------------
 Center     Atomic      Atomic             Coordinates (Angstroms)
 Number     Number       Type             X           Y           Z
 ---------------------------------------------------------------------
      1          6           0       -1.498480    0.228172   -0.079636
      2          6           0        0.675873   -0.826782   -0.161920
      3          1           0        0.267455   -1.489125   -0.788814
      4          6           0        1.979726   -0.324591   -0.727173
      5          1           0        1.812038    0.198950   -1.549747
      6          6           0        3.937623    0.825820   -0.162428
      7          1           0        4.368305    1.387450    0.514283
      8          1           0        3.897918    1.309797   -1.012983
      9          6           0        0.840376   -1.447098    1.211306
     10          1           0        1.350673   -0.838090    1.785731
     11          1           0       -0.042112   -1.603814    1.605531
     12          8           0       -0.173624    0.363692   -0.072381
     13          8           0        2.623725    0.505144    0.258743
     14         16           0       -2.381819    1.643508    0.235348
     15         16           0       -2.318354   -1.222403   -0.386439
     16          1           0        2.564233   -1.089292   -0.957967
     17          1           0        1.320200   -2.297226    1.129742
     18          1           0        4.452547   -0.000150   -0.280119
 ---------------------------------------------------------------------

 SCF Done:  E(RPBE1PBE) =  -1141.54558182     A.U. after   14 cycles

 The electronic state is 1-A.
 Alpha  occ. eigenvalues --  -88.75538 -88.74029 -19.09842 -19.08413 -10.15517
 Alpha  occ. eigenvalues --  -10.14875 -10.14335 -10.14192 -10.06073  -7.75700
 Alpha  occ. eigenvalues --   -7.74240  -5.69956  -5.69422  -5.69092  -5.68509
 Alpha  occ. eigenvalues --   -5.67996  -5.67580  -0.94265  -0.92417  -0.70182
 Alpha  occ. eigenvalues --   -0.63812  -0.60158  -0.58588  -0.51365  -0.47571
 Alpha  occ. eigenvalues --   -0.43431  -0.41104  -0.39275  -0.38520  -0.34576
 Alpha  occ. eigenvalues --   -0.33292  -0.30758  -0.28796  -0.27309  -0.25051
 Alpha  occ. eigenvalues --   -0.23852  -0.21488  -0.21304  -0.16651  -0.14158
 Alpha  occ. eigenvalues --   -0.09077  -0.05423  -0.02183   0.00165
 Alpha virt. eigenvalues --    0.17044   0.17231   0.20872   0.22913   0.23307
 Alpha virt. eigenvalues --    0.24222   0.25673   0.27966   0.29614   0.30501
 Alpha virt. eigenvalues --    0.31040   0.31438   0.31876   0.34069   0.35996

 Mulliken charges:
               1
     1  C    0.021232
     2  C    0.117688
     3  H   -0.040632
     4  C    0.309711
     5  H   -0.024769
     6  C    0.327119
     7  H   -0.016548
     8  H   -0.038728
     9  C    0.181838
    10  H   -0.018065
    11  H   -0.016249
    12  O   -0.302971
    13  O   -0.459888
    14  S   -0.443879
    15  S   -0.446191
    16  H   -0.054134
    17  H   -0.048407
    18  H   -0.047128
 Sum of Mulliken charges =  -1.00000

 Dipole moment (field-independent basis, Debye):
    X=             11.5225    Y=             -2.3792    Z=             -0.9685  Tot=             11.8054
 Quadrupole moment (field-independent basis, Debye-Ang):
   XX=            -94.6650   YY=            -82.8430   ZZ=            -71.5843
   XY=              2.6651   XZ=             -3.8598   YZ=             -2.3487

  Exact polarizability:     108.750      -6.881     103.224      -0.510       5.996      63.561
 Approx polarizability:     136.744      -8.401     174.607      -1.264      17.895      92.615

 Summary of Natural Population Analysis:

                                       Natural Population
                Natural  -----------------------------------------------
    Atom  No    Charge         Core      Valence    Rydberg      Total
 -----------------------------------------------------------------------
      C    1    0.03482      1.99939     3.91578    0.05001     5.96518
      C    2    0.13028      1.99891     3.84740    0.02341     5.86972
      H    3    0.19089      0.00000     0.79631    0.01279     0.80911
      C    4   -0.01916      1.99888     4.00244    0.01784     6.01916
      H    5    0.16632      0.00000     0.82840    0.00528     0.83368
      C    6   -0.15812      1.99905     4.14781    0.01125     6.15812
      H    7    0.16354      0.00000     0.83432    0.00213     0.83646
      H    8    0.14297      0.00000     0.85287    0.00415     0.85703
      C    9   -0.58481      1.99915     4.57484    0.01082     6.58481
      H   10    0.19664      0.00000     0.79864    0.00472     0.80336
      H   11    0.21278      0.00000     0.78183    0.00539     0.78722
      O   12   -0.56861      1.99957     6.55354    0.01550     8.56861
      O   13   -0.60057      1.99976     6.59008    0.01072     8.60057
      S   14   -0.36490      9.99908     6.33677    0.02904    16.36490
      S   15   -0.40332      9.99904     6.37820    0.02609    16.40332
      H   16    0.14643      0.00000     0.84893    0.00465     0.85357
      H   17    0.17759      0.00000     0.81944    0.00297     0.82241
      H   18    0.13722      0.00000     0.85855    0.00423     0.86278
 =======================================================================
   * Total *   -1.00000     33.99283    53.76616    0.24101    88.00000

 ******   10 imaginary frequencies (negative Signs) ******

                      1                      2                      3
                      A                      A                      A
 Frequencies --  -1249.3689             -1234.8902              -888.5101
 Red. masses --      1.0157                 1.0104                 1.0732
 Frc consts  --      0.9341                 0.9079                 0.4992
 IR Inten    --      0.0733                 0.2516                 0.9297

                      4                      5                      6
                      A                      A                      A
 Frequencies --   -812.7888              -804.1535              -700.5930
 Red. masses --      1.0611                 1.0964                 1.2567
 Frc consts  --      0.4130                 0.4177                 0.3634
 IR Inten    --     15.9303                 1.6866                 2.5013

                      7                      8                      9
                      A                      A                      A
 Frequencies --   -688.6274              -238.9421              -135.8125
 Red. masses --      1.1958                 3.0546                 4.4572
 Frc consts  --      0.3341                 0.1028                 0.0484
 IR Inten    --      2.7300                 1.7852                 0.9977

                     10                     11                     12
                      A                      A                      A
 Frequencies --    -44.0897               156.8521               236.5580
 Red. masses --      5.4737                 3.9209                 5.6941
 Frc consts  --      0.0063                 0.0568                 0.1877
 IR Inten    --      0.0729                 6.9303                 0.8019

                     13                     14                     15
                      A                      A                      A
 Frequencies --    306.0454               402.6424               510.4871
 Red. masses --      9.6717                 8.1576                 2.7264
 Frc consts  --      0.5337                 0.7792                 0.4186
 IR Inten    --      5.2833                 4.3283                 1.0601

                     16                     17                     18
                      A                      A                      A
 Frequencies --    565.8694               599.2263               613.6300
 Red. masses --      6.5994                 2.7258                 2.6329
 Frc consts  --      1.2451                 0.5767                 0.5841
 IR Inten    --      0.9471                12.9975                 3.9138

                     19                     20                     21
                      A                      A                      A
 Frequencies --    644.7937               665.0703               723.9704
 Red. masses --      2.9454                 2.1886                 1.2062
 Frc consts  --      0.7215                 0.5704                 0.3725
 IR Inten    --     20.3285                 2.6849                21.3241

                     22                     23                     24
                      A                      A                      A
 Frequencies --    744.1330               782.8877               841.8448
 Red. masses --      3.6387                 4.3518                 1.8545
 Frc consts  --      1.1871                 1.5715                 0.7744
 IR Inten    --      6.3464                 2.6568                50.8449

                     25                     26                     27
                      A                      A                      A
 Frequencies --    854.5894               918.7294               941.1865
 Red. masses --      1.8863                 2.0514                 1.3882
 Frc consts  --      0.8117                 1.0202                 0.7245
 IR Inten    --     29.1800                10.2055                23.9848

                     28                     29                     30
                      A                      A                      A
 Frequencies --    991.5338              1037.2468              1079.3155
 Red. masses --      3.1817                 2.5276                 1.8046
 Frc consts  --      1.8430                 1.6022                 1.2386
 IR Inten    --     37.5928                27.5192                65.3544

                     31                     32                     33
                      A                      A                      A
 Frequencies --   1109.8522              1123.0397              1133.5189
 Red. masses --      4.0263                 1.1031                 1.0424
 Frc consts  --      2.9220                 0.8197                 0.7891
 IR Inten    --    329.8761                43.2988                18.1943

                     34                     35                     36
                      A                      A                      A
 Frequencies --   1155.6638              1159.2117              1184.8782
 Red. masses --      1.3349                 1.8502                 2.2055
 Frc consts  --      1.0504                 1.4648                 1.8243
 IR Inten    --      6.3814                44.4807                59.2953

                     37                     38                     39
                      A                      A                      A
 Frequencies --   1198.0850              1278.0491              1301.0198
 Red. masses --      1.5325                 5.2414                11.3187
 Frc consts  --      1.2960                 5.0442                11.2879
 IR Inten    --     26.2917                26.2114               483.4894

                     40                     41                     42
                      A                      A                      A
 Frequencies --   4148.5307              4185.9957              4229.7381
 Red. masses --      1.0873                 1.0585                 1.0301
 Frc consts  --     11.0248                10.9279                10.8581
 IR Inten    --     12.8142                35.1242                60.9482

                     43                     44                     45
                      A                      A                      A
 Frequencies --   4242.9814              4298.0289              4407.5321
 Red. masses --      1.0328                 1.1100                 1.1073
 Frc consts  --     10.9545                12.0812                12.6740
 IR Inten    --     16.4249                28.0417                28.3484

                     46                     47                     48
                      A                      A                      A
 Frequencies --   4429.8193              4435.7266              4440.7054
 Red. masses --      1.1061                 1.1079                 1.1067
 Frc consts  --     12.7880                12.8432                12.8580
 IR Inten    --      7.4097                10.5847                 1.4032

 - Thermochemistry -
 -------------------
 Temperature   298.150 Kelvin.  Pressure   1.00000 Atm.
 Atom     1 has atomic number  6 and mass  12.00000

 Molecular mass:   165.00440 amu.
 Principal axes and moments of inertia in atomic units:
                           1         2         3
     Eigenvalues --   871.841633029.064283582.37815
           X            0.99996   0.00580  -0.00608
           Y           -0.00600   0.99939  -0.03446
           Z            0.00587   0.03450   0.99939
 This molecule is an asymmetric top.
 Rotational symmetry number  1.
 Warning -- assumption of classical behavior for rotation
           may cause significant error
 Rotational temperatures (Kelvin)      0.09935     0.02859     0.02418
 Rotational constants (GHZ):           2.07003     0.59581     0.50378
   10 imaginary frequencies ignored.
 Zero-point vibrational energy     377296.1 (Joules/Mol)
                                   90.17594 (Kcal/Mol)
 Warning -- explicit consideration of   8 degrees of freedom as
           vibrations may cause significant error
 Vibrational temperatures:    225.68   340.35   440.33   579.31   734.48
          (Kelvin)            814.16   862.15   882.88   927.71   956.89
                             1041.63  1070.64  1126.40  1211.23  1229.56
                             1321.85  1354.16  1426.60  1492.37  1552.89
                             1596.83  1615.80  1630.88  1662.74  1667.85
                             1704.78  1723.78  1838.83  1871.88  5968.81
                             6022.71  6085.65  6104.70  6183.90  6341.46
                             6373.52  6382.02  6389.18

 Zero-point correction=                           0.143705 (Hartree/Particle)
 Thermal correction to Energy=                    0.150141
 Thermal correction to Enthalpy=                  0.151086
 Thermal correction to Gibbs Free Energy=         0.111484
 Sum of electronic and zero-point Energies=          -1141.401877
 Sum of electronic and thermal Energies=             -1141.395440
 Sum of electronic and thermal Enthalpies=           -1141.394496
 Sum of electronic and thermal Free Energies=        -1141.434098

                     E (Thermal)             CV                S
                      KCal/Mol        Cal/Mol-Kelvin    Cal/Mol-Kelvin
 Total                   94.215             26.258             83.348
 Electronic               0.000              0.000              0.000
 Translational            0.889              2.981             41.211
 Rotational               0.889              2.981             30.626
 Vibrational             92.438             20.296             11.511
 Vibration     1          0.621              1.895              2.587
 Vibration     2          0.655              1.785              1.829
 Vibration     3          0.696              1.662              1.384
 Vibration     4          0.768              1.464              0.953
 Vibration     5          0.866              1.227              0.632
 Vibration     6          0.922              1.105              0.512
 Vibration     7          0.957              1.033              0.451
 Vibration     8          0.973              1.003              0.427

 Normal termination of Gaussian 16 at Mon Mar  6 10:30:13 2023.
