 Gaussian 16, Revision C.01,
 Gaussian 16:  ES64L-G16RevC.01  3-Jul-2019

 ----------------------------------------------------------------------
 #p pop=(regular,nbo,savenbos) freq=noraman def2svp empiricaldispersion
 =gd3bj output=wfx pbe1pbe
 ----------------------------------------------------------------------

 ----------------------------------------
 XECJAT_Complex_0_Ligand_1_SS_Cu_oriented
 ----------------------------------------
 Symbolic Z-matrix:
 Charge = -1 Multiplicity = 1

                         Standard orientation:
 ---------------------------------------------------------------------
 Center     Atomic      Atomic             Coordinates (Angstroms)
 Number     Number       Type             X           Y           Z
 ---------------------------------------------------------------------
      1          6           0       -1.941497   -0.084203   -0.014267
      2          6           0        0.093729   -0.125154    1.288352
      3          1           0       -0.232560   -0.205807    2.219291
      4          1           0        0.202613    0.834636    1.073083
      5          6           0        1.411230   -0.855929    1.124708
      6          1           0        1.998000   -0.640295    1.891309
      7          1           0        1.242110   -1.832458    1.137475
      8          6           0        2.121708   -0.498424   -0.153985
      9          1           0        1.489662   -0.513248   -0.930133
     10          6           0        2.833871    1.624786   -1.062332
     11          1           0        3.205812    1.054427   -1.765911
     12          1           0        3.462708    2.351847   -0.865641
     13          1           0        1.980879    2.004070   -1.363172
     14          6           0        3.286606   -1.397448   -0.398698
     15          1           0        3.787704   -1.078748   -1.177653
     16          1           0        2.965319   -2.309369   -0.568059
     17          1           0        3.869376   -1.398714    0.388676
     18          8           0       -0.837738   -0.747079    0.368130
     19          8           0        2.624051    0.868748    0.087763
     20         16           0       -2.224163    1.543347    0.332569
     21         16           0       -3.094338   -0.994688   -0.856887
 ---------------------------------------------------------------------

 SCF Done:  E(RPBE1PBE) =  -1180.77011695     A.U. after   13 cycles

 The electronic state is 1-A.
 Alpha  occ. eigenvalues --  -88.75491 -88.74308 -19.09487 -19.08537 -10.16151
 Alpha  occ. eigenvalues --  -10.15602 -10.13911 -10.12082 -10.09697 -10.09188
 Alpha  occ. eigenvalues --   -7.75682  -7.74525  -5.69932  -5.69417  -5.69062
 Alpha  occ. eigenvalues --   -5.68793  -5.68278  -5.67869  -0.93581  -0.92599
 Alpha  occ. eigenvalues --   -0.72998  -0.66745  -0.62495  -0.59547  -0.54935
 Alpha  occ. eigenvalues --   -0.51160  -0.48323  -0.43526  -0.41090  -0.40091
 Alpha  occ. eigenvalues --   -0.38529  -0.36461  -0.35056  -0.33401  -0.31585
 Alpha  occ. eigenvalues --   -0.29758  -0.28210  -0.26359  -0.25436  -0.22677
 Alpha  occ. eigenvalues --   -0.21432  -0.21310  -0.16135  -0.14535  -0.09401
 Alpha  occ. eigenvalues --   -0.05496  -0.02366  -0.00040
 Alpha virt. eigenvalues --    0.16966   0.17280   0.20011   0.21962   0.22320
 Alpha virt. eigenvalues --    0.24382   0.24938   0.25958   0.27421   0.27871
 Alpha virt. eigenvalues --    0.28391   0.29790   0.29938   0.31111   0.33836

 Mulliken charges:
               1
     1  C    0.020822
     2  C    0.366330
     3  H   -0.038377
     4  H   -0.037220
     5  C    0.061256
     6  H   -0.033120
     7  H   -0.021404
     8  C    0.040294
     9  H    0.000313
    10  C    0.319245
    11  H   -0.048442
    12  H   -0.027437
    13  H   -0.007381
    14  C    0.196475
    15  H   -0.038896
    16  H   -0.016747
    17  H   -0.029549
    18  O   -0.337969
    19  O   -0.474239
    20  S   -0.445494
    21  S   -0.448460
 Sum of Mulliken charges =  -1.00000

 Dipole moment (field-independent basis, Debye):
    X=             12.1411    Y=             -0.9911    Z=              0.7418  Tot=             12.2040
 Quadrupole moment (field-independent basis, Debye-Ang):
   XX=           -117.1082   YY=            -87.0726   ZZ=            -77.8297
   XY=             -0.8815   XZ=             -8.3741   YZ=             -5.3065

  Exact polarizability:     112.618       4.215     105.809      11.927       8.844      80.538
 Approx polarizability:     141.714      13.138     173.615      23.531      26.210     119.871

 Summary of Natural Population Analysis:

                                       Natural Population
                Natural  -----------------------------------------------
    Atom  No    Charge         Core      Valence    Rydberg      Total
 -----------------------------------------------------------------------
      C    1    0.02620      1.99939     3.92500    0.04941     5.97380
      C    2   -0.00385      1.99889     3.98364    0.02132     6.00385
      H    3    0.16296      0.00000     0.83256    0.00448     0.83704
      H    4    0.18625      0.00000     0.80121    0.01254     0.81375
      C    5   -0.41887      1.99902     4.40443    0.01542     6.41887
      H    6    0.19574      0.00000     0.79964    0.00461     0.80426
      H    7    0.19640      0.00000     0.79859    0.00501     0.80360
      C    8    0.16855      1.99897     3.81405    0.01844     5.83145
      H    9    0.17536      0.00000     0.81798    0.00666     0.82464
      C   10   -0.15326      1.99909     4.14242    0.01175     6.15326
      H   11    0.13470      0.00000     0.86132    0.00398     0.86530
      H   12    0.15811      0.00000     0.83962    0.00227     0.84189
      H   13    0.15685      0.00000     0.83875    0.00441     0.84315
      C   14   -0.58832      1.99917     4.57947    0.00968     6.58832
      H   15    0.18646      0.00000     0.81090    0.00264     0.81354
      H   16    0.19477      0.00000     0.80221    0.00302     0.80523
      H   17    0.18710      0.00000     0.80861    0.00429     0.81290
      O   18   -0.57996      1.99958     6.56655    0.01384     8.57996
      O   19   -0.63269      1.99975     6.62157    0.01137     8.63269
      S   20   -0.38566      9.99901     6.36017    0.02648    16.38566
      S   21   -0.36682      9.99906     6.33847    0.02929    16.36682
 =======================================================================
   * Total *   -1.00000     35.99193    59.74716    0.26091    96.00000

 ******   12 imaginary frequencies (negative Signs) ******

                      1                      2                      3
                      A                      A                      A
 Frequencies --  -1257.4918             -1217.9130              -943.7085
 Red. masses --      1.0101                 1.0124                 1.0500
 Frc consts  --      0.9411                 0.8848                 0.5510
 IR Inten    --      0.0574                 0.0244                 3.9630

                      4                      5                      6
                      A                      A                      A
 Frequencies --   -856.1818              -834.4569              -800.6065
 Red. masses --      1.0609                 1.0824                 1.0839
 Frc consts  --      0.4582                 0.4441                 0.4093
 IR Inten    --      4.8532                 1.5417                 1.3168

                      7                      8                      9
                      A                      A                      A
 Frequencies --   -678.4007              -648.6460              -320.1866
 Red. masses --      1.2751                 1.2326                 2.2815
 Frc consts  --      0.3457                 0.3056                 0.1378
 IR Inten    --      9.1211                 6.2551                 1.8972

                     10                     11                     12
                      A                      A                      A
 Frequencies --   -219.3601              -138.0179               -98.0723
 Red. masses --      2.8655                 4.0016                 5.6355
 Frc consts  --      0.0812                 0.0449                 0.0319
 IR Inten    --      0.9441                 1.6755                 1.5924

                     13                     14                     15
                      A                      A                      A
 Frequencies --     47.8585               160.6264               262.8101
 Red. masses --      2.4044                 4.1550                 2.3912
 Frc consts  --      0.0032                 0.0632                 0.0973
 IR Inten    --      3.9672                 0.5637                 0.7814

                     16                     17                     18
                      A                      A                      A
 Frequencies --    307.5431               403.8837               489.5342
 Red. masses --      6.3955                 5.3478                 3.1643
 Frc consts  --      0.3564                 0.5140                 0.4468
 IR Inten    --      8.3101                 4.9991                 3.4454

                     19                     20                     21
                      A                      A                      A
 Frequencies --    542.2263               574.7171               588.2160
 Red. masses --      4.7460                 6.4127                 2.9210
 Frc consts  --      0.8221                 1.2480                 0.5955
 IR Inten    --      4.8855                 1.9997                 3.0262

                     22                     23                     24
                      A                      A                      A
 Frequencies --    644.2707               668.2128               732.5926
 Red. masses --      2.2368                 2.3288                 1.2085
 Frc consts  --      0.5470                 0.6126                 0.3821
 IR Inten    --      4.9636                 3.2609                12.9961

                     25                     26                     27
                      A                      A                      A
 Frequencies --    746.8781               763.4428               798.6885
 Red. masses --      3.3741                 2.7948                 1.8882
 Frc consts  --      1.1089                 0.9597                 0.7096
 IR Inten    --      2.5035                15.1593                54.8762

                     28                     29                     30
                      A                      A                      A
 Frequencies --    863.2953               898.2973               901.4679
 Red. masses --      1.9803                 1.4132                 2.0465
 Frc consts  --      0.8695                 0.6719                 0.9799
 IR Inten    --     37.2230                35.7758                10.3167

                     31                     32                     33
                      A                      A                      A
 Frequencies --    953.5261               995.6952              1001.4029
 Red. masses --      1.6814                 3.0991                 1.8602
 Frc consts  --      0.9007                 1.8103                 1.0991
 IR Inten    --      2.2071                 7.1837                 3.2574

                     34                     35                     36
                      A                      A                      A
 Frequencies --   1013.7040              1068.0893              1092.9197
 Red. masses --      2.6014                 1.3405                 1.2765
 Frc consts  --      1.5750                 0.9010                 0.8984
 IR Inten    --     34.6834                36.7520                28.2290

                     37                     38                     39
                      A                      A                      A
 Frequencies --   1116.8779              1141.3959              1146.3005
 Red. masses --      4.2965                 1.0524                 2.6571
 Frc consts  --      3.1578                 0.8078                 2.0571
 IR Inten    --    256.3921                11.7992                62.6208

                     40                     41                     42
                      A                      A                      A
 Frequencies --   1156.9822              1184.3524              1191.8130
 Red. masses --      1.2125                 1.0967                 1.6160
 Frc consts  --      0.9563                 0.9064                 1.3524
 IR Inten    --      2.5014                21.0732                77.3994

                     43                     44                     45
                      A                      A                      A
 Frequencies --   1200.7396              1254.2420              1272.4593
 Red. masses --      2.3551                 3.6124                 7.9983
 Frc consts  --      2.0006                 3.3482                 7.6302
 IR Inten    --     29.5028                72.9018               488.9725

                     46                     47                     48
                      A                      A                      A
 Frequencies --   1306.4161              4128.3123              4188.0129
 Red. masses --      6.2566                 1.0884                 1.0609
 Frc consts  --      6.2915                10.9287                10.9635
 IR Inten    --     18.6500                 6.4370                13.3710

                     49                     50                     51
                      A                      A                      A
 Frequencies --   4197.4160              4222.9302              4231.2066
 Red. masses --      1.0589                 1.0302                 1.0329
 Frc consts  --     10.9920                10.8241                10.8949
 IR Inten    --     22.2336                50.4691                12.7556

                     52                     53                     54
                      A                      A                      A
 Frequencies --   4300.1852              4315.1691              4406.0483
 Red. masses --      1.1066                 1.1108                 1.1079
 Frc consts  --     12.0568                12.1869                12.6726
 IR Inten    --      8.2889                 9.3781                12.5976

                     55                     56                     57
                      A                      A                      A
 Frequencies --   4415.2415              4416.9056              4431.2171
 Red. masses --      1.1057                 1.1073                 1.1067
 Frc consts  --     12.7002                12.7277                12.8039
 IR Inten    --      7.9571                17.3171                 8.1589

 - Thermochemistry -
 -------------------
 Temperature   298.150 Kelvin.  Pressure   1.00000 Atm.
 Atom     1 has atomic number  6 and mass  12.00000

 Molecular mass:   179.02005 amu.
 Principal axes and moments of inertia in atomic units:
                           1         2         3
     Eigenvalues --  1140.903353941.869894374.72374
           X            0.99988  -0.00742  -0.01329
           Y            0.00667   0.99839  -0.05625
           Z            0.01368   0.05616   0.99833
 This molecule is an asymmetric top.
 Rotational symmetry number  1.
 Warning -- assumption of classical behavior for rotation
           may cause significant error
 Rotational temperatures (Kelvin)      0.07592     0.02197     0.01980
 Rotational constants (GHZ):           1.58185     0.45784     0.41254
   12 imaginary frequencies ignored.
 Zero-point vibrational energy     453050.5 (Joules/Mol)
                                  108.28166 (Kcal/Mol)
 Warning -- explicit consideration of   9 degrees of freedom as
           vibrations may cause significant error
 Vibrational temperatures:     68.86   231.11   378.13   442.49   581.10
          (Kelvin)            704.33   780.14   826.89   846.31   926.96
                              961.41  1054.04  1074.59  1098.42  1149.13
                             1242.09  1292.45  1297.01  1371.91  1432.58
                             1440.80  1458.49  1536.74  1572.47  1606.94
                             1642.21  1649.27  1664.64  1704.02  1714.75
                             1727.60  1804.57  1830.79  1879.64  5939.72
                             6025.62  6039.15  6075.85  6087.76  6187.01
                             6208.57  6339.32  6352.55  6354.94  6375.53

 Zero-point correction=                           0.172558 (Hartree/Particle)
 Thermal correction to Energy=                    0.179986
 Thermal correction to Enthalpy=                  0.180930
 Thermal correction to Gibbs Free Energy=         0.138393
 Sum of electronic and zero-point Energies=          -1180.597559
 Sum of electronic and thermal Energies=             -1180.590131
 Sum of electronic and thermal Enthalpies=           -1180.589187
 Sum of electronic and thermal Free Energies=        -1180.631724

                     E (Thermal)             CV                S
                      KCal/Mol        Cal/Mol-Kelvin    Cal/Mol-Kelvin
 Total                  112.943             29.769             89.526
 Electronic               0.000              0.000              0.000
 Translational            0.889              2.981             41.454
 Rotational               0.889              2.981             31.354
 Vibrational            111.165             23.808             16.718
 Vibration     1          0.595              1.978              4.904
 Vibration     2          0.622              1.891              2.542
 Vibration     3          0.670              1.741              1.643
 Vibration     4          0.697              1.659              1.376
 Vibration     5          0.769              1.462              0.948
 Vibration     6          0.845              1.273              0.685
 Vibration     7          0.897              1.157              0.561
 Vibration     8          0.931              1.086              0.495
 Vibration     9          0.945              1.057              0.470

 Normal termination of Gaussian 16 at Mon Mar  6 10:33:43 2023.
