 Gaussian 16, Revision C.01,
 Gaussian 16:  ES64L-G16RevC.01  3-Jul-2019

 ----------------------------------------------------------------------
 #p pop=(regular,nbo,savenbos) freq=noraman def2svp empiricaldispersion
 =gd3bj output=wfx pbe1pbe
 ----------------------------------------------------------------------

 ----------------------------------------
 XERQIV_Complex_0_Ligand_2_NN_Cu_oriented
 ----------------------------------------
 Symbolic Z-matrix:
 Charge = -1 Multiplicity = 1

                         Standard orientation:
 ---------------------------------------------------------------------
 Center     Atomic      Atomic             Coordinates (Angstroms)
 Number     Number       Type             X           Y           Z
 ---------------------------------------------------------------------
      1         16           0       -1.123876   -1.516099   -0.202061
      2         16           0        2.032005   -0.987401    0.879725
      3          8           0       -1.524982   -2.535126   -1.126162
      4          8           0       -0.671759   -1.928728    1.106734
      5          7           0       -0.072391   -0.574839   -0.942566
      6          7           0        1.839437    0.658333   -1.122440
      7          6           0       -2.489897   -0.436200    0.013474
      8          6           0        1.134497   -0.278904   -0.472148
      9          6           0        3.396860    0.020697    0.418908
     10          6           0        3.097102    0.814027   -0.636106
     11          6           0        4.081207    1.697337   -1.170035
     12          1           0        3.919834    2.254086   -1.895104
     13          6           0        5.324292    1.662256   -0.510335
     14          6           0        5.550435    0.883316    0.567512
     15          6           0        4.602018    0.032771    1.066719
     16          1           0        5.893852    2.273784   -0.874859
     17          1           0        6.392244    0.916210    0.887842
     18          1           0        4.778230   -0.499821    1.819037
     19          6           0       -5.746405    2.384655    0.371766
     20          1           0       -5.650080    2.867583    1.196997
     21          1           0       -5.712183    3.000621   -0.364113
     22          1           0       -6.588725    1.925424    0.366194
     23          6           0       -4.608746    1.369841    0.242040
     24          6           0       -3.626572    1.333966    1.170790
     25          6           0       -2.572824    0.433492    1.063870
     26          6           0       -3.422678   -0.379425   -0.952017
     27          6           0       -4.467032    0.529512   -0.817279
     28          1           0       -3.669224    1.896005    1.909520
     29          1           0       -4.916343    0.654141   -1.442861
     30          1           0       -1.915623    0.425844    1.719057
     31          1           0       -3.370988   -0.935536   -1.696825
 ---------------------------------------------------------------------

 SCF Done:  E(RPBE1PBE) =  -1594.10538858     A.U. after   16 cycles

 The electronic state is 1-A.
 Alpha  occ. eigenvalues --  -89.07372 -88.88471 -19.04282 -19.03813 -14.21657
 Alpha  occ. eigenvalues --  -14.21214 -10.18109 -10.14500 -10.13209 -10.12342
 Alpha  occ. eigenvalues --  -10.12203 -10.12046 -10.11957 -10.11954 -10.11921
 Alpha  occ. eigenvalues --  -10.10830 -10.10212 -10.09293 -10.09196 -10.08611
 Alpha  occ. eigenvalues --   -8.04212  -7.88606  -5.98424  -5.98331  -5.98254
 Alpha  occ. eigenvalues --   -5.82755  -5.82416  -5.81964  -0.99731  -0.87229
 Alpha  occ. eigenvalues --   -0.84254  -0.80494  -0.77448  -0.74041  -0.72561
 Alpha  occ. eigenvalues --   -0.69147  -0.68162  -0.65773  -0.63365  -0.61998
 Alpha  occ. eigenvalues --   -0.56846  -0.56101  -0.52917  -0.51279  -0.49640
 Alpha  occ. eigenvalues --   -0.47455  -0.42311  -0.41383  -0.40656  -0.39537
 Alpha  occ. eigenvalues --   -0.38746  -0.38584  -0.37815  -0.36043  -0.35620
 Alpha  occ. eigenvalues --   -0.35001  -0.34401  -0.32265  -0.31531  -0.30567
 Alpha  occ. eigenvalues --   -0.29799  -0.29392  -0.28433  -0.27533  -0.25786
 Alpha  occ. eigenvalues --   -0.24575  -0.23286  -0.21726  -0.19838  -0.18534
 Alpha  occ. eigenvalues --   -0.17909  -0.17542  -0.17482  -0.16856  -0.15184
 Alpha  occ. eigenvalues --   -0.12563  -0.12170  -0.11132  -0.06640
 Alpha virt. eigenvalues --    0.08582   0.09289   0.11418   0.13881   0.16530
 Alpha virt. eigenvalues --    0.17471   0.19333   0.20600   0.21555   0.22336
 Alpha virt. eigenvalues --    0.23007   0.23792   0.25306   0.26338   0.26730

 Mulliken charges:
               1
     1  S    0.863064
     2  S    0.035833
     3  O   -0.497861
     4  O   -0.510494
     5  N   -0.376042
     6  N   -0.223938
     7  C   -0.047117
     8  C    0.034991
     9  C   -0.067958
    10  C    0.089446
    11  C    0.033626
    12  H   -0.148673
    13  C    0.094397
    14  C    0.124825
    15  C    0.043040
    16  H   -0.140658
    17  H   -0.152543
    18  H   -0.130986
    19  C    0.286284
    20  H   -0.042921
    21  H   -0.011657
    22  H   -0.019090
    23  C   -0.123508
    24  C    0.049946
    25  C    0.141133
    26  C    0.117716
    27  C    0.246393
    28  H   -0.132104
    29  H   -0.313965
    30  H   -0.112462
    31  H   -0.108716
 Sum of Mulliken charges =  -1.00000

 Dipole moment (field-independent basis, Debye):
    X=             -4.1864    Y=              4.4576    Z=              2.4941  Tot=              6.6043
 Quadrupole moment (field-independent basis, Debye-Ang):
   XX=           -150.9841   YY=           -145.8724   ZZ=           -137.3447
   XY=            -12.9381   XZ=              2.4104   YZ=              0.3338

  Exact polarizability:     319.492      13.522     152.881      14.226      -6.632     141.696
 Approx polarizability:     411.906      31.874     255.642      40.783     -20.836     266.139

 Summary of Natural Population Analysis:

                                       Natural Population
                Natural  -----------------------------------------------
    Atom  No    Charge         Core      Valence    Rydberg      Total
 -----------------------------------------------------------------------
      S    1    2.31470      9.99796     3.44919    0.23816    13.68530
      S    2    0.27119      9.99887     5.69536    0.03458    15.72881
      O    3   -0.97739      1.99976     6.96887    0.00875     8.97739
      O    4   -0.98648      1.99977     6.97841    0.00830     8.98648
      N    5   -0.91102      1.99914     5.88949    0.02239     7.91102
      N    6   -0.58849      1.99922     5.57091    0.01836     7.58849
      C    7   -0.28473      1.99875     4.25636    0.02962     6.28473
      C    8    0.31455      1.99919     3.64223    0.04402     5.68545
      C    9   -0.21978      1.99878     4.19911    0.02189     6.21978
      C   10    0.14740      1.99874     3.82676    0.02711     5.85260
      C   11   -0.18273      1.99908     4.16704    0.01661     6.18273
      H   12    0.16740      0.00000     0.82906    0.00354     0.83260
      C   13   -0.19089      1.99911     4.17689    0.01488     6.19089
      C   14   -0.22707      1.99904     4.21177    0.01625     6.22707
      C   15   -0.18451      1.99899     4.16836    0.01716     6.18451
      H   16    0.15104      0.00000     0.84548    0.00348     0.84896
      H   17    0.15041      0.00000     0.84606    0.00353     0.84959
      H   18    0.17476      0.00000     0.82221    0.00303     0.82524
      C   19   -0.55376      1.99914     4.54563    0.00899     6.55376
      H   20    0.18648      0.00000     0.81091    0.00261     0.81352
      H   21    0.19248      0.00000     0.80483    0.00269     0.80752
      H   22    0.19074      0.00000     0.80665    0.00260     0.80926
      C   23   -0.00870      1.99899     3.99470    0.01501     6.00870
      C   24   -0.19141      1.99896     4.17738    0.01507     6.19141
      C   25   -0.13026      1.99898     4.11335    0.01793     6.13026
      C   26   -0.13259      1.99898     4.11577    0.01784     6.13259
      C   27   -0.11580      1.99840     4.09931    0.01809     6.11580
      H   28    0.16472      0.00000     0.83205    0.00323     0.83528
      H   29    0.08709      0.00000     0.90715    0.00576     0.91291
      H   30    0.18336      0.00000     0.81249    0.00415     0.81664
      H   31    0.18927      0.00000     0.80669    0.00404     0.81073
 =======================================================================
   * Total *   -1.00000     55.97985   101.37048    0.64967   158.00000

 ******   21 imaginary frequencies (negative Signs) ******

                      1                      2                      3
                      A                      A                      A
 Frequencies --  -3036.6634             -2736.3941             -1684.7815
 Red. masses --      1.0743                 1.0700                 1.0722
 Frc consts  --      5.8367                 4.7206                 1.7931
 IR Inten    --     24.2969                 5.6546                50.2039

                      4                      5                      6
                      A                      A                      A
 Frequencies --  -1520.9888             -1412.0415             -1407.2343
 Red. masses --      1.0580                 1.0487                 1.0212
 Frc consts  --      1.4421                 1.2320                 1.1915
 IR Inten    --     10.4971                14.3282                 9.4571

                      7                      8                      9
                      A                      A                      A
 Frequencies --  -1356.9365             -1290.6883             -1247.4382
 Red. masses --      1.0441                 1.0422                 1.0340
 Frc consts  --      1.1327                 1.0229                 0.9480
 IR Inten    --      8.9917                 4.5669                 0.0833

                     10                     11                     12
                      A                      A                      A
 Frequencies --  -1239.3288             -1218.5226             -1072.5786
 Red. masses --      1.0468                 1.0771                 1.0800
 Frc consts  --      0.9473                 0.9423                 0.7321
 IR Inten    --      7.6355                 4.3275                 8.2075

                     13                     14                     15
                      A                      A                      A
 Frequencies --  -1031.8236              -995.9512              -972.8032
 Red. masses --      1.0610                 1.0465                 1.0573
 Frc consts  --      0.6656                 0.6116                 0.5895
 IR Inten    --      5.5826                 6.1797                 7.5079

                     16                     17                     18
                      A                      A                      A
 Frequencies --   -895.8462              -832.5295              -752.0059
 Red. masses --      1.0912                 1.0882                 1.0793
 Frc consts  --      0.5160                 0.4444                 0.3596
 IR Inten    --     10.3054                 9.1547                13.5871

                     19                     20                     21
                      A                      A                      A
 Frequencies --   -746.2331               -48.4213               -27.7676
 Red. masses --      1.0549                10.9092                13.0802
 Frc consts  --      0.3461                 0.0151                 0.0059
 IR Inten    --     14.2229                 3.6856                 1.3682

                     22                     23                     24
                      A                      A                      A
 Frequencies --     46.3627                88.2945               115.3330
 Red. masses --      8.1680                10.1973                12.0871
 Frc consts  --      0.0103                 0.0468                 0.0947
 IR Inten    --      0.0858                 2.6523                 1.9605

                     25                     26                     27
                      A                      A                      A
 Frequencies --    141.1782               204.2454               227.7822
 Red. masses --     10.6405                 9.9293                 9.6410
 Frc consts  --      0.1250                 0.2440                 0.2947
 IR Inten    --      8.3656                 0.9928                 0.6008

                     28                     29                     30
                      A                      A                      A
 Frequencies --    241.7363               306.8124               311.4936
 Red. masses --      9.4112                10.9042                12.1543
 Frc consts  --      0.3240                 0.6048                 0.6948
 IR Inten    --      1.4784                 7.8559                 1.7481

                     31                     32                     33
                      A                      A                      A
 Frequencies --    323.1603               333.9347               346.8100
 Red. masses --      9.7731                 1.2073                10.5606
 Frc consts  --      0.6013                 0.0793                 0.7484
 IR Inten    --      1.2579                 5.0368                 2.1987

                     34                     35                     36
                      A                      A                      A
 Frequencies --    422.6450               437.7207               479.6931
 Red. masses --      9.5469                10.0212                11.5925
 Frc consts  --      1.0048                 1.1313                 1.5716
 IR Inten    --      8.0876                 1.9945                 1.5405

                     37                     38                     39
                      A                      A                      A
 Frequencies --    516.3239               531.8708               550.6673
 Red. masses --      9.3712                12.0614                10.5758
 Frc consts  --      1.4719                 2.0103                 1.8895
 IR Inten    --      0.6638                74.0357                 0.0763

                     40                     41                     42
                      A                      A                      A
 Frequencies --    574.5227               587.3803               596.7493
 Red. masses --      9.8461                10.0735                10.3972
 Frc consts  --      1.9148                 2.0477                 2.1815
 IR Inten    --     93.3431                 7.7239                58.0957

                     43                     44                     45
                      A                      A                      A
 Frequencies --    615.8746               644.2131               663.9519
 Red. masses --      7.6804                 9.1450                 7.6245
 Frc consts  --      1.7164                 2.2361                 1.9803
 IR Inten    --      3.1085                12.2336                 2.7848

                     46                     47                     48
                      A                      A                      A
 Frequencies --    669.9444               682.8354               707.6560
 Red. masses --     10.4894                 8.3363                 7.3407
 Frc consts  --      2.7738                 2.2901                 2.1659
 IR Inten    --     13.7386                16.6650               135.0810

                     49                     50                     51
                      A                      A                      A
 Frequencies --    725.3715               726.2723               796.2938
 Red. masses --     10.3502                 5.3392                 9.9857
 Frc consts  --      3.2086                 1.6593                 3.7306
 IR Inten    --     89.9433                22.1319                 3.2226

                     52                     53                     54
                      A                      A                      A
 Frequencies --    797.9533               808.0471               908.5690
 Red. masses --      5.7724                 6.1205                 6.6371
 Frc consts  --      2.1655                 2.3546                 3.2281
 IR Inten    --      9.5526                 0.6266                80.0721

                     55                     56                     57
                      A                      A                      A
 Frequencies --    927.2617               982.6980              1003.8373
 Red. masses --      5.9553                 1.0555                 8.5507
 Frc consts  --      3.0169                 0.6006                 5.0767
 IR Inten    --     89.5038                11.9646               121.9901

                     58                     59                     60
                      A                      A                      A
 Frequencies --   1008.6208              1118.2839              1125.7665
 Red. masses --      1.1555                 7.6434                 8.4965
 Frc consts  --      0.6926                 5.6317                 6.3444
 IR Inten    --     23.7750                10.7029                87.2514

                     61                     62                     63
                      A                      A                      A
 Frequencies --   1232.8180              1256.1442              1261.3210
 Red. masses --      9.2007                 9.3308                12.8126
 Frc consts  --      8.2389                 8.6746                12.0099
 IR Inten    --    130.3250                83.0365               252.4650

                     64                     65                     66
                      A                      A                      A
 Frequencies --   1346.0483              1353.2618              1412.1216
 Red. masses --     10.7479                 8.0567                 8.9798
 Frc consts  --     11.4735                 8.6930                10.5502
 IR Inten    --     37.1437                 0.2961                13.6376

                     67                     68                     69
                      A                      A                      A
 Frequencies --   1449.9355              1471.5498              1520.7893
 Red. masses --     20.0025                11.7705                 9.6381
 Frc consts  --     24.7761                15.0174                13.1335
 IR Inten    --    209.3439               514.9606                18.4343

                     70                     71                     72
                      A                      A                      A
 Frequencies --   1556.2770              1569.9651              1604.9515
 Red. masses --     11.0523                10.7146                 9.1843
 Frc consts  --     15.7717                15.5598                13.9387
 IR Inten    --    491.3294              1418.6937                 3.3429

                     73                     74                     75
                      A                      A                      A
 Frequencies --   1662.6726              1689.4942              1794.0531
 Red. masses --     10.4864                10.2391                10.5556
 Frc consts  --     17.0800                17.2197                20.0172
 IR Inten    --      4.2008                 5.3601                69.5411

                     76                     77                     78
                      A                      A                      A
 Frequencies --   1824.7190              4467.5208              4670.8218
 Red. masses --      9.9590                 1.0321                 1.1069
 Frc consts  --     19.5370                12.1370                14.2274
 IR Inten    --      3.1687                14.0727                 2.1398

                     79                     80                     81
                      A                      A                      A
 Frequencies --   4681.5652              4918.4523              5027.2592
 Red. masses --      1.1067                 1.0900                 1.0898
 Frc consts  --     14.2909                15.5351                16.2278
 IR Inten    --      1.4718                 1.5534                 3.7397

                     82                     83                     84
                      A                      A                      A
 Frequencies --   5036.2928              5064.3771              5067.8506
 Red. masses --      1.0888                 1.0898                 1.0894
 Frc consts  --     16.2720                16.4690                16.4851
 IR Inten    --      3.4612                 2.0096                 0.1878

                     85                     86                     87
                      A                      A                      A
 Frequencies --   5280.1279              5426.2626              7541.6844
 Red. masses --      1.0890                 1.0888                 1.0875
 Frc consts  --     17.8888                18.8894                36.4422
 IR Inten    --      7.9615                 2.5063                 0.4314

 - Thermochemistry -
 -------------------
 Temperature   298.150 Kelvin.  Pressure   1.00000 Atm.
 Atom     1 has atomic number 16 and mass  31.97207

 Molecular mass:   303.02620 amu.
 Principal axes and moments of inertia in atomic units:
                           1         2         3
     Eigenvalues --  2635.17743********************
           X            0.99995  -0.01017  -0.00095
           Y            0.01018   0.99993   0.00576
           Z            0.00089  -0.00577   0.99998
 This molecule is an asymmetric top.
 Rotational symmetry number  1.
 Warning -- assumption of classical behavior for rotation
           may cause significant error
 Rotational temperatures (Kelvin)      0.03287     0.00687     0.00632
 Rotational constants (GHZ):           0.68487     0.14307     0.13166
   21 imaginary frequencies ignored.
 Zero-point vibrational energy     618986.8 (Joules/Mol)
                                  147.94138 (Kcal/Mol)
 Warning -- explicit consideration of  22 degrees of freedom as
           vibrations may cause significant error
 Vibrational temperatures:     66.71   127.04   165.94   203.12   293.86
          (Kelvin)            327.73   347.80   441.43   448.17   464.96
                              480.46   498.98   608.09   629.78   690.17
                              742.87   765.24   792.29   826.61   845.11
                              858.59   886.11   926.88   955.28   963.90
                              982.45  1018.16  1043.65  1044.94  1145.69
                             1148.08  1162.60  1307.23  1334.12  1413.88
                             1444.30  1451.18  1608.96  1619.73  1773.75
                             1807.31  1814.76  1936.66  1947.04  2031.73
                             2086.13  2117.23  2188.08  2239.14  2258.83
                             2309.17  2392.22  2430.81  2581.24  2625.36
                             6427.77  6720.27  6735.73  7076.56  7233.10
                             7246.10  7286.51  7291.51  7596.93  7807.18
                            10850.80

 Zero-point correction=                           0.235760 (Hartree/Particle)
 Thermal correction to Energy=                    0.248560
 Thermal correction to Enthalpy=                  0.249504
 Thermal correction to Gibbs Free Energy=         0.195267
 Sum of electronic and zero-point Energies=          -1593.869629
 Sum of electronic and thermal Energies=             -1593.856829
 Sum of electronic and thermal Enthalpies=           -1593.855885
 Sum of electronic and thermal Free Energies=        -1593.910122

                     E (Thermal)             CV                S
                      KCal/Mol        Cal/Mol-Kelvin    Cal/Mol-Kelvin
 Total                  155.973             51.050            114.151
 Electronic               0.000              0.000              0.000
 Translational            0.889              2.981             43.023
 Rotational               0.889              2.981             34.476
 Vibrational            154.196             45.088             36.652
 Vibration     1          0.595              1.979              4.967
 Vibration     2          0.601              1.957              3.698
 Vibration     3          0.608              1.937              3.177
 Vibration     4          0.615              1.912              2.788
 Vibration     5          0.640              1.834              2.095
 Vibration     6          0.651              1.799              1.896
 Vibration     7          0.658              1.776              1.790
 Vibration     8          0.697              1.661              1.379
 Vibration     9          0.700              1.652              1.354
 Vibration    10          0.708              1.629              1.294
 Vibration    11          0.715              1.608              1.241
 Vibration    12          0.725              1.582              1.181
 Vibration    13          0.785              1.421              0.883
 Vibration    14          0.798              1.388              0.834
 Vibration    15          0.836              1.295              0.711
 Vibration    16          0.871              1.214              0.619
 Vibration    17          0.887              1.179              0.583
 Vibration    18          0.906              1.138              0.543
 Vibration    19          0.931              1.086              0.496
 Vibration    20          0.945              1.059              0.472
 Vibration    21          0.955              1.039              0.455
 Vibration    22          0.975              0.998              0.423

 Normal termination of Gaussian 16 at Mon Mar  6 11:04:08 2023.
