 Gaussian 16, Revision C.01,
 Gaussian 16:  ES64L-G16RevC.01  3-Jul-2019

 ----------------------------------------------------------------------
 #p pop=(regular,nbo,savenbos) freq=noraman def2svp empiricaldispersion
 =gd3bj output=wfx pbe1pbe
 ----------------------------------------------------------------------

 ----------------------------------------
 XEZQAU_Complex_1_Ligand_0_NN_Cu_oriented
 ----------------------------------------
 Symbolic Z-matrix:
 Charge = -1 Multiplicity = 1

                         Standard orientation:
 ---------------------------------------------------------------------
 Center     Atomic      Atomic             Coordinates (Angstroms)
 Number     Number       Type             X           Y           Z
 ---------------------------------------------------------------------
      1          7           0        0.433287    1.577713   -1.203320
      2          7           0       -2.100383    1.076664   -0.637640
      3          6           0        1.731650    1.427582   -1.496382
      4          6           0        2.724298    1.684000   -0.578592
      5          6           0        2.362472    2.146875    0.669064
      6          6           0        1.030720    2.320136    0.978076
      7          6           0        0.077517    1.990893    0.022121
      8          6           0       -1.407617    2.025561    0.265189
      9          1           0        3.585634    1.521270   -0.795973
     10          1           0        2.960364    2.342869    1.266022
     11          1           0        0.701703    2.643338    1.851236
     12          1           0       -1.608763    1.900383    1.160465
     13          1           0       -1.803635    2.914414    0.053942
     14         16           0       -2.367209   -0.370199   -0.009646
     15          8           0       -3.117589   -1.130722   -0.976677
     16          8           0       -2.920557   -0.257374    1.319427
     17          6           0       -0.781188   -1.150393    0.154281
     18          6           0       -0.034835   -0.966475    1.310417
     19          6           0        1.290473   -1.372446    1.332500
     20          6           0        1.892072   -1.961665    0.227217
     21          6           0        1.113214   -2.180637   -0.903431
     22          6           0       -0.207364   -1.775567   -0.952614
     23          6           0        3.353251   -2.321519    0.252788
     24          1           0       -0.400563   -0.524171    2.076555
     25          1           0        1.839701   -1.204509    2.135944
     26          1           0        1.538515   -2.611160   -1.692097
     27          1           0       -0.689210   -1.923738   -1.760149
     28          1           0        3.547906   -2.737196    0.933738
     29          1           0        3.822393   -1.509988    0.204683
     30          1           0        3.586731   -2.707595   -0.431994
     31          1           0        1.901432    1.145333   -2.387128
 ---------------------------------------------------------------------

 SCF Done:  E(RPBE1PBE) =  -1159.24805272     A.U. after   15 cycles

 The electronic state is 1-A.
 Alpha  occ. eigenvalues --  -89.01554 -18.98960 -18.98790 -14.24962 -14.14986
 Alpha  occ. eigenvalues --  -10.13915 -10.13338 -10.12035 -10.11763 -10.11181
 Alpha  occ. eigenvalues --  -10.10809 -10.10282 -10.10195 -10.10158 -10.09627
 Alpha  occ. eigenvalues --  -10.09402 -10.07528 -10.06904  -7.98337  -5.92565
 Alpha  occ. eigenvalues --   -5.92471  -5.92355  -0.94009  -0.83749  -0.81784
 Alpha  occ. eigenvalues --   -0.76524  -0.72228  -0.71243  -0.70723  -0.66686
 Alpha  occ. eigenvalues --   -0.65095  -0.62499  -0.57834  -0.54859  -0.52390
 Alpha  occ. eigenvalues --   -0.51777  -0.50095  -0.45306  -0.44378  -0.40312
 Alpha  occ. eigenvalues --   -0.39610  -0.38946  -0.37806  -0.36770  -0.35467
 Alpha  occ. eigenvalues --   -0.33994  -0.33142  -0.32964  -0.32816  -0.32203
 Alpha  occ. eigenvalues --   -0.30835  -0.29603  -0.27952  -0.26483  -0.26109
 Alpha  occ. eigenvalues --   -0.25271  -0.24617  -0.23868  -0.18347  -0.16703
 Alpha  occ. eigenvalues --   -0.16117  -0.15010  -0.14217  -0.13366  -0.13196
 Alpha  occ. eigenvalues --   -0.12110  -0.11174  -0.06791  -0.03420
 Alpha virt. eigenvalues --    0.09297   0.10817   0.12239   0.12492   0.17279
 Alpha virt. eigenvalues --    0.20429   0.21235   0.22256   0.23767   0.24265
 Alpha virt. eigenvalues --    0.25520   0.25696   0.26937   0.28015   0.28494

 Mulliken charges:
               1
     1  N   -0.137143
     2  N   -0.561247
     3  C    0.168492
     4  C    0.061150
     5  C    0.216335
     6  C    0.047548
     7  C   -0.173366
     8  C    0.441234
     9  H   -0.140768
    10  H   -0.181917
    11  H   -0.082339
    12  H   -0.106865
    13  H   -0.037872
    14  S    0.832444
    15  O   -0.539504
    16  O   -0.546496
    17  C   -0.074876
    18  C    0.092290
    19  C    0.009503
    20  C   -0.187451
    21  C   -0.009436
    22  C    0.137662
    23  C    0.591069
    24  H   -0.095129
    25  H   -0.097839
    26  H   -0.088015
    27  H   -0.096519
    28  H   -0.127319
    29  H   -0.050867
    30  H   -0.181485
    31  H   -0.081274
 Sum of Mulliken charges =  -1.00000

 Dipole moment (field-independent basis, Debye):
    X=             11.7826    Y=              0.5548    Z=              2.0192  Tot=             11.9672
 Quadrupole moment (field-independent basis, Debye-Ang):
   XX=           -146.2942   YY=           -121.7167   ZZ=           -118.0105
   XY=             -4.7696   XZ=             -2.9407   YZ=              5.9815

  Exact polarizability:     188.102     -15.604     132.625       2.560      16.371     134.541
 Approx polarizability:     305.206     -31.548     194.854      12.069      36.085     256.285

 Summary of Natural Population Analysis:

                                       Natural Population
                Natural  -----------------------------------------------
    Atom  No    Charge         Core      Valence    Rydberg      Total
 -----------------------------------------------------------------------
      N    1   -0.45978      1.99929     5.44266    0.01784     7.45978
      N    2   -1.00079      1.99949     5.98590    0.01540     8.00079
      C    3    0.09699      1.99916     3.88141    0.02244     5.90301
      C    4   -0.23629      1.99908     4.22308    0.01413     6.23629
      C    5   -0.12228      1.99899     4.10812    0.01517     6.12228
      C    6   -0.24672      1.99899     4.23368    0.01406     6.24672
      C    7    0.25185      1.99904     3.72216    0.02696     5.74815
      C    8   -0.20442      1.99888     4.18327    0.02226     6.20442
      H    9    0.14992      0.00000     0.84641    0.00367     0.85008
      H   10    0.13102      0.00000     0.86591    0.00307     0.86898
      H   11    0.18959      0.00000     0.80683    0.00358     0.81041
      H   12    0.15717      0.00000     0.83504    0.00778     0.84283
      H   13    0.19923      0.00000     0.79701    0.00376     0.80077
      S   14    2.29582      9.99799     3.46760    0.23859    13.70418
      O   15   -0.99948      1.99977     6.99113    0.00858     8.99948
      O   16   -1.02854      1.99977     7.02041    0.00835     9.02854
      C   17   -0.29126      1.99885     4.26141    0.03101     6.29126
      C   18   -0.18426      1.99897     4.16546    0.01983     6.18426
      C   19   -0.21442      1.99898     4.19995    0.01548     6.21442
      C   20   -0.02505      1.99896     4.01045    0.01564     6.02505
      C   21   -0.22383      1.99898     4.20992    0.01493     6.22383
      C   22   -0.14836      1.99897     4.13018    0.01921     6.14836
      C   23   -0.47213      1.99864     4.46185    0.01164     6.47213
      H   24    0.19593      0.00000     0.79975    0.00432     0.80407
      H   25    0.18044      0.00000     0.81623    0.00333     0.81956
      H   26    0.18247      0.00000     0.81427    0.00326     0.81753
      H   27    0.19531      0.00000     0.80039    0.00430     0.80469
      H   28    0.14370      0.00000     0.85367    0.00263     0.85630
      H   29    0.19027      0.00000     0.80662    0.00311     0.80973
      H   30    0.14640      0.00000     0.85078    0.00282     0.85360
      H   31    0.15151      0.00000     0.84540    0.00309     0.84849
 =======================================================================
   * Total *   -1.00000     43.98281    93.43695    0.58024   138.00000

 ******   22 imaginary frequencies (negative Signs) ******

                      1                      2                      3
                      A                      A                      A
 Frequencies --  -2585.7651             -2409.7864             -2292.1256
 Red. masses --      1.0299                 1.1229                 1.0179
 Frc consts  --      4.0572                 3.8420                 3.1510
 IR Inten    --      3.0513                23.3143                 0.2068

                      4                      5                      6
                      A                      A                      A
 Frequencies --  -1989.3046             -1985.1488             -1643.5396
 Red. masses --      1.0678                 1.1311                 1.0639
 Frc consts  --      2.4898                 2.6262                 1.6932
 IR Inten    --     26.0221                16.8299                 3.9200

                      7                      8                      9
                      A                      A                      A
 Frequencies --  -1611.3145             -1295.5253             -1218.3672
 Red. masses --      1.0579                 1.0359                 1.0647
 Frc consts  --      1.6183                 1.0243                 0.9311
 IR Inten    --     17.6240                 5.1980                 5.5504

                     10                     11                     12
                      A                      A                      A
 Frequencies --  -1140.2148             -1124.1097             -1058.1160
 Red. masses --      1.0330                 1.0543                 1.0385
 Frc consts  --      0.7913                 0.7849                 0.6851
 IR Inten    --      4.8794                23.8627                 8.6305

                     13                     14                     15
                      A                      A                      A
 Frequencies --  -1014.1734              -783.9307              -727.5829
 Red. masses --      1.0920                 1.1923                 1.0323
 Frc consts  --      0.6618                 0.4317                 0.3220
 IR Inten    --      4.9198                 4.6081                 8.6196

                     16                     17                     18
                      A                      A                      A
 Frequencies --   -712.2957              -628.7812              -573.3706
 Red. masses --      1.0230                 1.0356                 1.1656
 Frc consts  --      0.3058                 0.2412                 0.2258
 IR Inten    --      6.4421                 9.7614                 7.1229

                     19                     20                     21
                      A                      A                      A
 Frequencies --   -481.5103              -454.5753              -299.6643
 Red. masses --      1.2380                 1.3804                 1.1555
 Frc consts  --      0.1691                 0.1681                 0.0611
 IR Inten    --      6.5129                 0.6723                16.6956

                     22                     23                     24
                      A                      A                      A
 Frequencies --   -186.4089                83.7619               111.0152
 Red. masses --      3.3221                 7.0368                 7.3389
 Frc consts  --      0.0680                 0.0291                 0.0533
 IR Inten    --      5.2790                 0.3256                 0.1266

                     25                     26                     27
                      A                      A                      A
 Frequencies --    159.8280               199.7447               214.0741
 Red. masses --      7.6868                 5.1280                 9.0110
 Frc consts  --      0.1157                 0.1205                 0.2433
 IR Inten    --      1.6497                 2.5910                 0.3109

                     28                     29                     30
                      A                      A                      A
 Frequencies --    232.1059               248.9909               306.0765
 Red. masses --      6.4105                 9.4792                 8.5895
 Frc consts  --      0.2035                 0.3462                 0.4741
 IR Inten    --      2.8070                 0.4685                 1.2821

                     31                     32                     33
                      A                      A                      A
 Frequencies --    342.9250               348.7088               399.7227
 Red. masses --      6.7111                 3.7314                 4.1600
 Frc consts  --      0.4650                 0.2673                 0.3916
 IR Inten    --     10.5220                 3.0083                 9.2477

                     34                     35                     36
                      A                      A                      A
 Frequencies --    415.8365               459.7004               478.4796
 Red. masses --      2.0779                 5.2189                 2.3156
 Frc consts  --      0.2117                 0.6498                 0.3123
 IR Inten    --      8.9125                 7.8038                 8.2941

                     37                     38                     39
                      A                      A                      A
 Frequencies --    508.4886               512.7125               525.9326
 Red. masses --      6.1215                10.0857                 2.4402
 Frc consts  --      0.9326                 1.5621                 0.3977
 IR Inten    --     17.3764                 0.9095                24.3280

                     40                     41                     42
                      A                      A                      A
 Frequencies --    538.7803               568.6826               613.1281
 Red. masses --      2.7050                11.0332                 5.4797
 Frc consts  --      0.4626                 2.1023                 1.2137
 IR Inten    --     10.0441                 0.0659                43.5223

                     43                     44                     45
                      A                      A                      A
 Frequencies --    643.7812               650.2428               671.8498
 Red. masses --      4.4794                 5.6175                 4.6726
 Frc consts  --      1.0938                 1.3994                 1.2427
 IR Inten    --     25.6586                59.2149                13.0256

                     46                     47                     48
                      A                      A                      A
 Frequencies --    695.0397               720.5674               723.2229
 Red. masses --      6.4883                 4.3990                 7.3761
 Frc consts  --      1.8467                 1.3457                 2.2731
 IR Inten    --     12.6001                29.1113                15.9363

                     49                     50                     51
                      A                      A                      A
 Frequencies --    775.9209               803.8091               844.5938
 Red. masses --      2.2805                 2.3765                 6.3696
 Frc consts  --      0.8089                 0.9047                 2.6771
 IR Inten    --      3.0523                 9.7013                 0.7549

                     52                     53                     54
                      A                      A                      A
 Frequencies --    847.5885               869.4298               903.9196
 Red. masses --      3.0108                 7.5710                 2.2718
 Frc consts  --      1.2744                 3.3719                 1.0937
 IR Inten    --     11.9803                46.0729                 2.9204

                     55                     56                     57
                      A                      A                      A
 Frequencies --    905.8291               922.7285               965.7754
 Red. masses --      4.2576                 2.4322                 1.5503
 Frc consts  --      2.0583                 1.2201                 0.8520
 IR Inten    --      7.3374                 5.7240                16.5168

                     58                     59                     60
                      A                      A                      A
 Frequencies --   1036.2902              1101.3376              1129.2101
 Red. masses --      7.9210                 6.8254                 4.2870
 Frc consts  --      5.0118                 4.8778                 3.2207
 IR Inten    --      2.6251                 5.7064                86.2789

                     61                     62                     63
                      A                      A                      A
 Frequencies --   1229.6110              1236.7839              1259.9161
 Red. masses --      7.7799                 6.9164                14.8683
 Frc consts  --      6.9304                 6.2333                13.9057
 IR Inten    --     30.4871                 3.7509               345.7458

                     64                     65                     66
                      A                      A                      A
 Frequencies --   1363.4356              1386.2355              1402.5429
 Red. masses --      8.6831                 8.2563                 9.2175
 Frc consts  --      9.5103                 9.3478                10.6831
 IR Inten    --      3.2551                 3.6376                 2.2076

                     67                     68                     69
                      A                      A                      A
 Frequencies --   1418.3042              1432.6087              1437.8496
 Red. masses --      9.1103                 8.8574                15.6886
 Frc consts  --     10.7974                10.7105                19.1101
 IR Inten    --     22.0935                10.2560               194.2783

                     70                     71                     72
                      A                      A                      A
 Frequencies --   1464.1549              1647.3654              1658.9985
 Red. masses --      8.4561                 9.7721                10.5712
 Frc consts  --     10.6806                15.6249                17.1421
 IR Inten    --     17.8543                30.1295                33.2775

                     73                     74                     75
                      A                      A                      A
 Frequencies --   1666.9737              1673.9016              4156.6472
 Red. masses --     10.4168                10.5344                 1.0799
 Frc consts  --     17.0546                17.3909                10.9930
 IR Inten    --      2.0921                 5.6478                32.1486

                     76                     77                     78
                      A                      A                      A
 Frequencies --   4218.7062              4293.7902              4302.7432
 Red. masses --      1.0897                 1.0894                 1.0904
 Frc consts  --     11.4266                11.8340                11.8934
 IR Inten    --     15.3738                12.0151                 4.0449

                     79                     80                     81
                      A                      A                      A
 Frequencies --   4681.0933              4751.8719              4772.6608
 Red. masses --      1.0896                 1.0896                 1.0899
 Frc consts  --     14.0679                14.4962                14.6267
 IR Inten    --      0.4757                 1.3215                 6.6164

                     82                     83                     84
                      A                      A                      A
 Frequencies --   4839.2678              5048.6662              5408.1775
 Red. masses --      1.0722                 1.0866                 1.0890
 Frc consts  --     14.7940                16.3185                18.7668
 IR Inten    --      6.6421                13.8742                 1.2530

                     85                     86                     87
                      A                      A                      A
 Frequencies --   5956.9597              6587.1515              6832.0943
 Red. masses --      1.0886                 1.0572                 1.1123
 Frc consts  --     22.7597                27.0265                30.5894
 IR Inten    --      0.6050                 2.4806                 0.3926

 - Thermochemistry -
 -------------------
 Temperature   298.150 Kelvin.  Pressure   1.00000 Atm.
 Atom     1 has atomic number  7 and mass  14.00307

 Molecular mass:   261.06977 amu.
 Principal axes and moments of inertia in atomic units:
                           1         2         3
     Eigenvalues --  3125.444644548.637326169.85386
           X            0.99852  -0.05432  -0.00034
           Y            0.05431   0.99834   0.01905
           Z           -0.00070  -0.01904   0.99982
 This molecule is an asymmetric top.
 Rotational symmetry number  1.
 Warning -- assumption of classical behavior for rotation
           may cause significant error
 Rotational temperatures (Kelvin)      0.02771     0.01904     0.01404
 Rotational constants (GHZ):           0.57744     0.39677     0.29251
   22 imaginary frequencies ignored.
 Zero-point vibrational energy     649622.2 (Joules/Mol)
                                  155.26342 (Kcal/Mol)
 Warning -- explicit consideration of  20 degrees of freedom as
           vibrations may cause significant error
 Vibrational temperatures:    120.51   159.73   229.96   287.39   308.00
          (Kelvin)            333.95   358.24   440.38   493.39   501.71
                              575.11   598.30   661.41   688.43   731.60
                              737.68   756.70   775.18   818.21   882.15
                              926.26   935.55   966.64  1000.01  1036.74
                             1040.56  1116.38  1156.50  1215.18  1219.49
                             1250.92  1300.54  1303.29  1327.60  1389.54
                             1490.99  1584.58  1624.68  1769.14  1779.46
                             1812.74  1961.68  1994.48  2017.95  2040.62
                             2061.20  2068.74  2106.59  2370.19  2386.93
                             2398.40  2408.37  5980.49  6069.78  6177.81
                             6190.69  6735.05  6836.88  6866.79  6962.63
                             7263.90  7781.16  8570.74  9477.44  9829.86

 Zero-point correction=                           0.247428 (Hartree/Particle)
 Thermal correction to Energy=                    0.259331
 Thermal correction to Enthalpy=                  0.260275
 Thermal correction to Gibbs Free Energy=         0.209394
 Sum of electronic and zero-point Energies=          -1159.000625
 Sum of electronic and thermal Energies=             -1158.988721
 Sum of electronic and thermal Enthalpies=           -1158.987777
 Sum of electronic and thermal Free Energies=        -1159.038659

                     E (Thermal)             CV                S
                      KCal/Mol        Cal/Mol-Kelvin    Cal/Mol-Kelvin
 Total                  162.733             48.617            107.090
 Electronic               0.000              0.000              0.000
 Translational            0.889              2.981             42.578
 Rotational               0.889              2.981             32.839
 Vibrational            160.955             42.655             31.672
 Vibration     1          0.601              1.960              3.801
 Vibration     2          0.607              1.940              3.251
 Vibration     3          0.622              1.892              2.552
 Vibration     4          0.638              1.840              2.135
 Vibration     5          0.644              1.820              2.009
 Vibration     6          0.653              1.792              1.863
 Vibration     7          0.662              1.764              1.738
 Vibration     8          0.696              1.662              1.383
 Vibration     9          0.722              1.590              1.199
 Vibration    10          0.726              1.578              1.172
 Vibration    11          0.766              1.471              0.964
 Vibration    12          0.779              1.436              0.906
 Vibration    13          0.818              1.339              0.767
 Vibration    14          0.835              1.298              0.714
 Vibration    15          0.864              1.231              0.637
 Vibration    16          0.868              1.222              0.627
 Vibration    17          0.881              1.193              0.596
 Vibration    18          0.894              1.164              0.568
 Vibration    19          0.925              1.099              0.507
 Vibration    20          0.972              1.004              0.428

 Normal termination of Gaussian 16 at Mon Mar  6 11:14:46 2023.
