 Gaussian 16, Revision C.01,
 Gaussian 16:  ES64L-G16RevC.01  3-Jul-2019

 ----------------------------------------------------------------------
 #p pop=(regular,nbo,savenbos) freq=noraman def2svp empiricaldispersion
 =gd3bj output=wfx pbe1pbe
 ----------------------------------------------------------------------

 ----------------------------------------
 XEZQEY_Complex_0_Ligand_0_NN_Cu_oriented
 ----------------------------------------
 Symbolic Z-matrix:
 Charge = -1 Multiplicity = 1

                         Standard orientation:
 ---------------------------------------------------------------------
 Center     Atomic      Atomic             Coordinates (Angstroms)
 Number     Number       Type             X           Y           Z
 ---------------------------------------------------------------------
      1          7           0        2.631108    0.077723    0.918326
      2          6           0        4.760657   -0.875106    0.469812
      3          6           0        4.427081   -1.034518   -0.851164
      4          1           0        5.026802   -1.432582   -1.441420
      5          6           0        3.211009   -0.606700   -1.292523
      6          1           0        2.974174   -0.701449   -2.187114
      7          6           0        2.337629   -0.028362   -0.391095
      8          6           0        1.007238    0.521488   -0.811112
      9          1           0        0.454855   -0.193741   -1.162104
     10         16           0       -1.168881    1.512089    0.081081
     11          8           0       -1.341106    2.114238   -1.213309
     12          8           0       -1.636579    2.242398    1.222835
     13          7           0        0.350813    1.135463    0.316058
     14          6           0        3.833372   -0.339891    1.337512
     15          1           0        4.049011   -0.265535    2.239530
     16          6           0       -2.061389   -0.004232    0.044157
     17          6           0       -2.161904   -0.747491    1.180409
     18          1           0       -1.747635   -0.463074    1.961543
     19          6           0       -2.880131   -1.922419    1.167608
     20          6           0       -3.461321   -2.375882    0.078395
     21          6           0       -3.396786   -1.632308   -1.031253
     22          1           0       -3.840716   -1.922138   -1.795134
     23          6           0       -2.696375   -0.460535   -1.077373
     24          1           0       -2.652827    0.025769   -1.868962
     25          1           0       -2.955806   -2.411514    1.955382
     26          1           0        1.133295    1.179016   -1.512954
     27          1           0        5.600966   -1.125833    0.776064
     28          1           0       -3.906469   -3.192000    0.080754
 ---------------------------------------------------------------------

 SCF Done:  E(RPBE1PBE) =  -1120.13406597     A.U. after   15 cycles

 The electronic state is 1-A.
 Alpha  occ. eigenvalues --  -89.01759 -18.99099 -18.99021 -14.25392 -14.14353
 Alpha  occ. eigenvalues --  -10.14268 -10.13602 -10.12322 -10.11135 -10.10911
 Alpha  occ. eigenvalues --  -10.10079 -10.09461 -10.09259 -10.09128 -10.09093
 Alpha  occ. eigenvalues --  -10.09063 -10.07541  -7.98544  -5.92778  -5.92678
 Alpha  occ. eigenvalues --   -5.92564  -0.94750  -0.84173  -0.82371  -0.78033
 Alpha  occ. eigenvalues --   -0.72758  -0.71739  -0.67905  -0.66830  -0.66292
 Alpha  occ. eigenvalues --   -0.58269  -0.55593  -0.53226  -0.53115  -0.51003
 Alpha  occ. eigenvalues --   -0.47189  -0.44896  -0.42002  -0.40325  -0.38709
 Alpha  occ. eigenvalues --   -0.36698  -0.36059  -0.34290  -0.33903  -0.33479
 Alpha  occ. eigenvalues --   -0.33279  -0.31843  -0.29704  -0.28701  -0.28151
 Alpha  occ. eigenvalues --   -0.27460  -0.26835  -0.25447  -0.24708  -0.18706
 Alpha  occ. eigenvalues --   -0.17005  -0.16902  -0.15537  -0.15064  -0.14864
 Alpha  occ. eigenvalues --   -0.13391  -0.12656  -0.11889  -0.06463  -0.03412
 Alpha virt. eigenvalues --    0.09488   0.10793   0.11776   0.12315   0.19283
 Alpha virt. eigenvalues --    0.20124   0.22035   0.23512   0.23995   0.25607
 Alpha virt. eigenvalues --    0.26296   0.26310   0.27902   0.28271   0.30336

 Mulliken charges:
               1
     1  N   -0.130103
     2  C    0.009996
     3  C    0.145458
     4  H   -0.116102
     5  C    0.086715
     6  H   -0.126834
     7  C   -0.129796
     8  C    0.430056
     9  H   -0.067572
    10  S    0.844543
    11  O   -0.546749
    12  O   -0.527585
    13  N   -0.594854
    14  C    0.183595
    15  H   -0.097688
    16  C   -0.074249
    17  C    0.143481
    18  H   -0.120246
    19  C    0.086340
    20  C    0.100418
    21  C    0.093741
    22  H   -0.125956
    23  C    0.090329
    24  H   -0.129764
    25  H   -0.122398
    26  H   -0.053611
    27  H   -0.117557
    28  H   -0.133610
 Sum of Mulliken charges =  -1.00000

 Dipole moment (field-independent basis, Debye):
    X=              3.1531    Y=             -7.8856    Z=             -2.1358  Tot=              8.7570
 Quadrupole moment (field-independent basis, Debye-Ang):
   XX=           -119.0697   YY=           -125.7242   ZZ=           -109.4141
   XY=              7.5779   XZ=             -1.0206   YZ=             -2.1678

  Exact polarizability:     190.160       8.392     127.388       8.161       1.033     137.860
 Approx polarizability:     245.468       9.852     200.070      19.243       6.759     246.985

 Summary of Natural Population Analysis:

                                       Natural Population
                Natural  -----------------------------------------------
    Atom  No    Charge         Core      Valence    Rydberg      Total
 -----------------------------------------------------------------------
      N    1   -0.45633      1.99929     5.43951    0.01752     7.45633
      C    2   -0.24834      1.99912     4.23555    0.01367     6.24834
      C    3   -0.15699      1.99911     4.14338    0.01449     6.15699
      H    4    0.16030      0.00000     0.83654    0.00316     0.83970
      C    5   -0.22653      1.99898     4.21287    0.01468     6.22653
      H    6    0.17003      0.00000     0.82648    0.00349     0.82997
      C    7    0.27167      1.99907     3.70236    0.02689     5.72833
      C    8   -0.20633      1.99899     4.18583    0.02151     6.20633
      H    9    0.17058      0.00000     0.82305    0.00636     0.82942
      S   10    2.31673      9.99792     3.44189    0.24345    13.68327
      O   11   -1.03735      1.99977     7.02944    0.00814     9.03735
      O   12   -0.98891      1.99976     6.98058    0.00857     8.98891
      N   13   -1.02341      1.99941     6.00760    0.01640     8.02341
      C   14    0.10230      1.99912     3.87739    0.02119     5.89770
      H   15    0.13992      0.00000     0.85674    0.00334     0.86008
      C   16   -0.28661      1.99881     4.25558    0.03222     6.28661
      C   17   -0.14158      1.99897     4.12388    0.01873     6.14158
      H   18    0.18361      0.00000     0.81146    0.00493     0.81639
      C   19   -0.18324      1.99907     4.16844    0.01573     6.18324
      C   20   -0.20625      1.99906     4.19182    0.01537     6.20625
      C   21   -0.17917      1.99909     4.16442    0.01567     6.17917
      H   22    0.15845      0.00000     0.83809    0.00346     0.84155
      C   23   -0.17823      1.99897     4.15957    0.01970     6.17823
      H   24    0.18519      0.00000     0.81020    0.00461     0.81481
      H   25    0.16022      0.00000     0.83628    0.00350     0.83978
      H   26    0.17909      0.00000     0.81350    0.00742     0.82091
      H   27    0.15948      0.00000     0.83679    0.00374     0.84052
      H   28    0.16169      0.00000     0.83480    0.00351     0.83831
 =======================================================================
   * Total *   -1.00000     41.98451    87.44405    0.57144   130.00000

 ******   22 imaginary frequencies (negative Signs) ******

                      1                      2                      3
                      A                      A                      A
 Frequencies --  -1465.3244             -1461.1026             -1366.0221
 Red. masses --      1.0823                 1.0828                 1.0473
 Frc consts  --      1.3691                 1.3620                 1.1514
 IR Inten    --     58.3314                48.7323                 0.1894

                      4                      5                      6
                      A                      A                      A
 Frequencies --  -1343.9562             -1308.5166             -1305.7474
 Red. masses --      1.0498                 1.0324                 1.0289
 Frc consts  --      1.1172                 1.0415                 1.0335
 IR Inten    --      0.3805                 0.4082                 0.1456

                      7                      8                      9
                      A                      A                      A
 Frequencies --  -1232.4257             -1198.9193             -1153.3493
 Red. masses --      1.0190                 1.0371                 1.0382
 Frc consts  --      0.9119                 0.8783                 0.8137
 IR Inten    --      0.6095                 0.1265                 0.2514

                     10                     11                     12
                      A                      A                      A
 Frequencies --  -1135.8160              -957.4490              -905.3623
 Red. masses --      1.0342                 1.0865                 1.0577
 Frc consts  --      0.7861                 0.5868                 0.5108
 IR Inten    --      6.9924                 0.0177                 1.7440

                     13                     14                     15
                      A                      A                      A
 Frequencies --   -890.4516              -889.3794              -834.6059
 Red. masses --      1.1476                 1.1292                 1.1130
 Frc consts  --      0.5361                 0.5262                 0.4568
 IR Inten    --      3.1480                 6.1874                14.8612

                     16                     17                     18
                      A                      A                      A
 Frequencies --   -765.5525              -711.0867              -699.6015
 Red. masses --      1.1130                 1.0891                 1.1752
 Frc consts  --      0.3843                 0.3245                 0.3389
 IR Inten    --      6.6182                 7.1584                 5.8702

                     19                     20                     21
                      A                      A                      A
 Frequencies --   -674.5723              -551.0761              -400.3479
 Red. masses --      1.0510                 1.4912                 1.3588
 Frc consts  --      0.2818                 0.2668                 0.1283
 IR Inten    --     16.7016                13.0545                23.8940

                     22                     23                     24
                      A                      A                      A
 Frequencies --    -52.2810                69.0296               109.3986
 Red. masses --      9.1235                 7.4936                 9.6408
 Frc consts  --      0.0147                 0.0210                 0.0680
 IR Inten    --      0.3024                 0.7615                 2.1233

                     25                     26                     27
                      A                      A                      A
 Frequencies --    165.8987               211.8376               222.8303
 Red. masses --      9.5030                 9.2819                 8.6915
 Frc consts  --      0.1541                 0.2454                 0.2543
 IR Inten    --      0.5696                 2.6047                 1.6104

                     28                     29                     30
                      A                      A                      A
 Frequencies --    271.6604               290.1015               327.1173
 Red. masses --      8.2044                 8.3652                 9.6294
 Frc consts  --      0.3567                 0.4148                 0.6071
 IR Inten    --     21.8589                 8.7942                 6.5033

                     31                     32                     33
                      A                      A                      A
 Frequencies --    362.8326               467.6002               480.8626
 Red. masses --      6.9718                11.0998                 8.2795
 Frc consts  --      0.5408                 1.4299                 1.1280
 IR Inten    --      0.1058                19.3640                 3.8193

                     34                     35                     36
                      A                      A                      A
 Frequencies --    502.4053               504.3467               571.4266
 Red. masses --     10.6406                10.5954                 9.6454
 Frc consts  --      1.5824                 1.5879                 1.8556
 IR Inten    --      0.8280                 0.8528                34.0803

                     37                     38                     39
                      A                      A                      A
 Frequencies --    592.6648               598.6157               638.6274
 Red. masses --      8.0041                 5.8511                 6.1703
 Frc consts  --      1.6565                 1.2353                 1.4827
 IR Inten    --    109.8633                 4.2177                11.6516

                     40                     41                     42
                      A                      A                      A
 Frequencies --    687.4345               714.6887               720.6712
 Red. masses --      3.9727                 7.9618                 6.6780
 Frc consts  --      1.1061                 2.3960                 2.0435
 IR Inten    --     61.5119                14.0547                 8.5311

                     43                     44                     45
                      A                      A                      A
 Frequencies --    738.3849               756.6034               767.0283
 Red. masses --      4.7324                 4.2234                 8.8278
 Frc consts  --      1.5202                 1.4244                 3.0600
 IR Inten    --      3.2468                 0.8403                 6.6576

                     46                     47                     48
                      A                      A                      A
 Frequencies --    852.1147               873.0776               880.7690
 Red. masses --      4.0506                 2.8619                 2.4559
 Frc consts  --      1.7329                 1.2853                 1.1225
 IR Inten    --      2.7480                 4.5165                 2.7850

                     49                     50                     51
                      A                      A                      A
 Frequencies --    911.3245               954.9750              1041.4141
 Red. masses --      6.7089                 2.4655                 7.9253
 Frc consts  --      3.2828                 1.3247                 5.0642
 IR Inten    --     27.5597               147.8949                 2.7759

                     52                     53                     54
                      A                      A                      A
 Frequencies --   1068.8808              1204.8579              1221.0989
 Red. masses --      6.7830                 7.5505                 6.7409
 Frc consts  --      4.5659                 6.4580                 5.9220
 IR Inten    --      2.4649                25.7555               139.5800

                     55                     56                     57
                      A                      A                      A
 Frequencies --   1254.6934              1288.9305              1378.8080
 Red. masses --      7.6773                14.8764                 9.2245
 Frc consts  --      7.1209                14.5615                10.3324
 IR Inten    --     16.9158               401.4699                 4.2229

                     58                     59                     60
                      A                      A                      A
 Frequencies --   1402.4124              1414.8626              1442.0019
 Red. masses --      8.3391                 8.2521                 9.6683
 Frc consts  --      9.6632                 9.7329                11.8449
 IR Inten    --      1.9976                 1.0856                34.3995

                     61                     62                     63
                      A                      A                      A
 Frequencies --   1463.9370              1519.3268              1611.7714
 Red. masses --     19.9504                 9.2209                 9.3696
 Frc consts  --     25.1911                12.5408                14.3410
 IR Inten    --    221.4709                 4.6001                 2.4461

                     64                     65                     66
                      A                      A                      A
 Frequencies --   1673.8327              1690.5203              1762.4901
 Red. masses --     10.3612                10.5059                10.2447
 Frc consts  --     17.1035                17.6898                18.7501
 IR Inten    --      9.7109                74.4231                14.1863

                     67                     68                     69
                      A                      A                      A
 Frequencies --   1880.0440              4397.6294              4516.1733
 Red. masses --     10.0465                 1.0581                 1.1086
 Frc consts  --     20.9218                12.0560                13.3218
 IR Inten    --      6.0561                61.4771                10.6907

                     70                     71                     72
                      A                      A                      A
 Frequencies --   5008.4821              5011.6829              5018.5505
 Red. masses --      1.0858                 1.0874                 1.0884
 Frc consts  --     16.0480                16.0922                16.1504
 IR Inten    --      1.7085                 2.1306                10.5779

                     73                     74                     75
                      A                      A                      A
 Frequencies --   5025.9709              5028.9995              5031.7680
 Red. masses --      1.0885                 1.0908                 1.0916
 Frc consts  --     16.2000                16.2540                16.2841
 IR Inten    --      5.5631                 3.0410                 3.6293

                     76                     77                     78
                      A                      A                      A
 Frequencies --   5037.9832              5046.1509              5054.0952
 Red. masses --      1.0923                 1.0913                 1.0902
 Frc consts  --     16.3343                16.3720                16.4078
 IR Inten    --      6.8645                 8.8240                 2.5909

 - Thermochemistry -
 -------------------
 Temperature   298.150 Kelvin.  Pressure   1.00000 Atm.
 Atom     1 has atomic number  7 and mass  14.00307

 Molecular mass:   247.05412 amu.
 Principal axes and moments of inertia in atomic units:
                           1         2         3
     Eigenvalues --  2380.178797221.898698073.37763
           X            0.99996   0.00881  -0.00025
           Y           -0.00881   0.99993  -0.00742
           Z            0.00018   0.00742   0.99997
 This molecule is an asymmetric top.
 Rotational symmetry number  1.
 Warning -- assumption of classical behavior for rotation
           may cause significant error
 Rotational temperatures (Kelvin)      0.03639     0.01199     0.01073
 Rotational constants (GHZ):           0.75824     0.24990     0.22354
   22 imaginary frequencies ignored.
 Zero-point vibrational energy     560699.9 (Joules/Mol)
                                  134.01048 (Kcal/Mol)
 Warning -- explicit consideration of  16 degrees of freedom as
           vibrations may cause significant error
 Vibrational temperatures:     99.32   157.40   238.69   304.79   320.60
          (Kelvin)            390.86   417.39   470.65   522.04   672.77
                              691.85   722.85   725.64   822.16   852.71
                              861.27   918.84   989.06  1028.28  1036.89
                             1062.37  1088.58  1103.58  1226.00  1256.16
                             1267.23  1311.19  1374.00  1498.36  1537.88
                             1733.52  1756.89  1805.22  1854.48  1983.80
                             2017.76  2035.67  2074.72  2106.28  2185.97
                             2318.98  2408.27  2432.28  2535.83  2704.96
                             6327.21  6497.77  7206.09  7210.69  7220.57
                             7231.25  7235.61  7239.59  7248.53  7260.29
                             7271.72

 Zero-point correction=                           0.213559 (Hartree/Particle)
 Thermal correction to Energy=                    0.223836
 Thermal correction to Enthalpy=                  0.224781
 Thermal correction to Gibbs Free Energy=         0.176137
 Sum of electronic and zero-point Energies=          -1119.920507
 Sum of electronic and thermal Energies=             -1119.910230
 Sum of electronic and thermal Enthalpies=           -1119.909285
 Sum of electronic and thermal Free Energies=        -1119.957929

                     E (Thermal)             CV                S
                      KCal/Mol        Cal/Mol-Kelvin    Cal/Mol-Kelvin
 Total                  140.459             40.483            102.380
 Electronic               0.000              0.000              0.000
 Translational            0.889              2.981             42.414
 Rotational               0.889              2.981             33.295
 Vibrational            138.682             34.521             26.671
 Vibration     1          0.598              1.969              4.181
 Vibration     2          0.606              1.942              3.280
 Vibration     3          0.624              1.884              2.481
 Vibration     4          0.643              1.823              2.028
 Vibration     5          0.649              1.806              1.936
 Vibration     6          0.675              1.725              1.586
 Vibration     7          0.686              1.692              1.473
 Vibration     8          0.711              1.621              1.274
 Vibration     9          0.737              1.549              1.110
 Vibration    10          0.825              1.322              0.744
 Vibration    11          0.837              1.292              0.708
 Vibration    12          0.858              1.245              0.652
 Vibration    13          0.860              1.240              0.647
 Vibration    14          0.928              1.093              0.502
 Vibration    15          0.950              1.047              0.462
 Vibration    16          0.957              1.035              0.452

 Normal termination of Gaussian 16 at Mon Mar  6 10:49:39 2023.
