 Gaussian 16, Revision C.01,
 Gaussian 16:  ES64L-G16RevC.01  3-Jul-2019

 ----------------------------------------------------------------------
 #p pop=(regular,nbo,savenbos) freq=noraman def2svp empiricaldispersion
 =gd3bj output=wfx pbe1pbe
 ----------------------------------------------------------------------

 ----------------------------------------
 XIKFIH_Complex_2_Ligand_0_ON_Cu_oriented
 ----------------------------------------
 Symbolic Z-matrix:
 Charge = -1 Multiplicity = 1

                         Standard orientation:
 ---------------------------------------------------------------------
 Center     Atomic      Atomic             Coordinates (Angstroms)
 Number     Number       Type             X           Y           Z
 ---------------------------------------------------------------------
      1          7           0        0.219896   -0.225482    0.790889
      2          8           0       -1.936706   -0.823078    2.588859
      3          6           0       -2.672161   -0.632362    1.541256
      4          6           0       -4.081522   -0.759694    1.594719
      5          1           0       -4.489810   -1.002870    2.393697
      6          6           0       -4.853851   -0.528229    0.485463
      7          1           0       -5.776389   -0.627925    0.554485
      8          6           0       -2.153597   -0.276670    0.286239
      9          6           0       -4.312616   -0.151557   -0.732460
     10          1           0       -4.856339    0.015562   -1.469592
     11          6           0       -2.950484   -0.035115   -0.815938
     12          6           0       -0.767356   -0.123815   -0.037138
     13          6           0       -0.672272    0.155170   -1.515225
     14          1           0       -0.134859    0.946118   -1.676265
     15          1           0       -0.264263   -0.595748   -1.975734
     16          6           0       -2.102895    0.374445   -2.013487
     17          1           0       -2.280705   -0.244964   -2.753219
     18          6           0       -2.363199    1.752342   -2.473711
     19          1           0       -2.321279    2.352332   -1.725061
     20          1           0       -1.701575    2.002861   -3.123085
     21          1           0       -3.234561    1.797030   -2.871291
     22          6           0        1.557734   -0.039645    0.277319
     23          6           0        2.079797    1.258339    0.266350
     24          6           0        3.369895    1.412086   -0.217591
     25          1           0        3.742655    2.264886   -0.246557
     26          6           0        4.113323    0.351092   -0.652113
     27          1           0        4.974207    0.483523   -0.976547
     28          6           0        3.580120   -0.917424   -0.607032
     29          1           0        4.090690   -1.638561   -0.897202
     30          6           0        2.293707   -1.132419   -0.136030
     31          6           0        1.311342    2.441090    0.800948
     32          6           0        1.077591    3.523375   -0.226252
     33          1           0        1.920478    3.885797   -0.508421
     34          1           0        0.620325    3.151395   -0.984783
     35          1           0        0.542530    4.220709    0.159364
     36          6           0        1.757689   -2.560613   -0.064417
     37          1           0        0.849724   -2.513444    0.301923
     38          6           0        1.662218   -3.212059   -1.428806
     39          1           0        2.543947   -3.313357   -1.796604
     40          1           0        1.249502   -4.074338   -1.342559
     41          1           0        1.134278   -2.660618   -2.010634
     42          6           0        2.575309   -3.420922    0.867450
     43          1           0        2.722846   -2.950765    1.690111
     44          1           0        2.102264   -4.238231    1.045386
     45          6           0        1.953184    3.020990    2.050834
     46          1           0        2.769420    3.464892    1.813456
     47          1           0        1.351646    3.650293    2.455736
     48          1           0        2.140691    2.314013    2.671256
     49          1           0        0.428588    2.107704    1.065399
     50          1           0        3.418623   -3.623732    0.457384
 ---------------------------------------------------------------------

 SCF Done:  E(RPBE1PBE) =  -981.771958354     A.U. after   17 cycles

 The electronic state is 1-A.
 Alpha  occ. eigenvalues --  -18.95724 -14.22440 -10.13561 -10.12962 -10.11416
 Alpha  occ. eigenvalues --  -10.11337 -10.10699 -10.10622 -10.10108 -10.10067
 Alpha  occ. eigenvalues --  -10.09978 -10.09872 -10.09844 -10.08505 -10.08105
 Alpha  occ. eigenvalues --  -10.08089 -10.07898 -10.07738 -10.07709 -10.07332
 Alpha  occ. eigenvalues --  -10.06707 -10.05067 -10.05007 -10.03922  -0.81346
 Alpha  occ. eigenvalues --   -0.79542  -0.76701  -0.74199  -0.74155  -0.72068
 Alpha  occ. eigenvalues --   -0.69632  -0.66124  -0.64870  -0.63532  -0.63512
 Alpha  occ. eigenvalues --   -0.62989  -0.60661  -0.58682  -0.55670  -0.53767
 Alpha  occ. eigenvalues --   -0.52357  -0.50894  -0.48950  -0.46288  -0.45124
 Alpha  occ. eigenvalues --   -0.44553  -0.41059  -0.40634  -0.39105  -0.38501
 Alpha  occ. eigenvalues --   -0.37641  -0.36970  -0.36227  -0.35868  -0.35006
 Alpha  occ. eigenvalues --   -0.34908  -0.34622  -0.34310  -0.33303  -0.32828
 Alpha  occ. eigenvalues --   -0.32769  -0.31555  -0.30342  -0.30084  -0.29100
 Alpha  occ. eigenvalues --   -0.27921  -0.27009  -0.26486  -0.26151  -0.25973
 Alpha  occ. eigenvalues --   -0.25092  -0.24877  -0.24114  -0.24020  -0.23629
 Alpha  occ. eigenvalues --   -0.23026  -0.22260  -0.21493  -0.19353  -0.17640
 Alpha  occ. eigenvalues --   -0.16263  -0.15666  -0.14077  -0.10195  -0.09579
 Alpha  occ. eigenvalues --   -0.04321  -0.03209
 Alpha virt. eigenvalues --    0.11086   0.12086   0.12871   0.16843   0.17870
 Alpha virt. eigenvalues --    0.18060   0.19198   0.20649   0.20981   0.21628
 Alpha virt. eigenvalues --    0.22269   0.22683   0.23621   0.23804   0.24151

 Mulliken charges:
               1
     1  N   -0.187667
     2  O   -0.411796
     3  C    0.137695
     4  C   -0.017942
     5  H   -0.165317
     6  C    0.137062
     7  H   -0.141854
     8  C   -0.005134
     9  C   -0.046966
    10  H   -0.179872
    11  C   -0.016946
    12  C   -0.209035
    13  C    0.340748
    14  H   -0.064948
    15  H   -0.038021
    16  C   -0.091463
    17  H   -0.055075
    18  C    0.261629
    19  H   -0.031194
    20  H   -0.047221
    21  H   -0.043383
    22  C   -0.030074
    23  C   -0.040863
    24  C    0.044033
    25  H   -0.141640
    26  C    0.104793
    27  H   -0.137089
    28  C    0.043181
    29  H   -0.142508
    30  C   -0.038615
    31  C   -0.092778
    32  C    0.227777
    33  H   -0.051602
    34  H   -0.040751
    35  H   -0.041408
    36  C   -0.092460
    37  H   -0.004576
    38  C    0.226219
    39  H   -0.051804
    40  H   -0.040181
    41  H   -0.039038
    42  C    0.216179
    43  H   -0.015869
    44  H   -0.038639
    45  C    0.218835
    46  H   -0.053792
    47  H   -0.039214
    48  H   -0.014789
    49  H   -0.002997
    50  H   -0.053629
 Sum of Mulliken charges =  -1.00000

 Dipole moment (field-independent basis, Debye):
    X=              6.0756    Y=              2.1521    Z=             -6.5907  Tot=              9.2186
 Quadrupole moment (field-independent basis, Debye-Ang):
   XX=           -182.2045   YY=           -149.2896   ZZ=           -165.4911
   XY=             -5.0591   XZ=             10.6225   YZ=              5.9737

  Exact polarizability:     303.759       6.654     204.857      -9.571      -8.070     195.008
 Approx polarizability:     418.684       8.075     288.001      -3.479     -18.218     325.279

 Summary of Natural Population Analysis:

                                       Natural Population
                Natural  -----------------------------------------------
    Atom  No    Charge         Core      Valence    Rydberg      Total
 -----------------------------------------------------------------------
      N    1   -0.52145      1.99919     5.50450    0.01776     7.52145
      O    2   -0.71319      1.99979     6.70544    0.00796     8.71319
      C    3    0.41990      1.99883     3.54038    0.04089     5.58010
      C    4   -0.27934      1.99901     4.26023    0.02010     6.27934
      H    5    0.16149      0.00000     0.83336    0.00515     0.83851
      C    6   -0.16466      1.99913     4.15079    0.01475     6.16466
      H    7    0.15029      0.00000     0.84605    0.00366     0.84971
      C    8   -0.22639      1.99868     4.20731    0.02040     6.22639
      C    9   -0.31879      1.99897     4.30096    0.01886     6.31879
      H   10    0.16013      0.00000     0.83656    0.00331     0.83987
      C   11    0.01229      1.99894     3.97010    0.01866     5.98771
      C   12    0.31830      1.99899     3.65338    0.02933     5.68170
      C   13   -0.42230      1.99902     4.40858    0.01470     6.42230
      H   14    0.19423      0.00000     0.80189    0.00388     0.80577
      H   15    0.20183      0.00000     0.79473    0.00344     0.79817
      C   16   -0.19134      1.99903     4.17709    0.01522     6.19134
      H   17    0.18563      0.00000     0.80959    0.00478     0.81437
      C   18   -0.54136      1.99916     4.53194    0.01026     6.54136
      H   19    0.18662      0.00000     0.81014    0.00325     0.81338
      H   20    0.17508      0.00000     0.82157    0.00335     0.82492
      H   21    0.18194      0.00000     0.81513    0.00293     0.81806
      C   22    0.17326      1.99861     3.80224    0.02589     5.82674
      C   23   -0.04835      1.99885     4.02978    0.01972     6.04835
      C   24   -0.19100      1.99901     4.17630    0.01569     6.19100
      H   25    0.16134      0.00000     0.83505    0.00361     0.83866
      C   26   -0.20387      1.99910     4.18936    0.01540     6.20387
      H   27    0.15968      0.00000     0.83699    0.00332     0.84032
      C   28   -0.18744      1.99902     4.17284    0.01558     6.18744
      H   29    0.16096      0.00000     0.83551    0.00353     0.83904
      C   30   -0.05405      1.99883     4.03527    0.01996     6.05405
      C   31   -0.19387      1.99899     4.18005    0.01483     6.19387
      C   32   -0.53673      1.99916     4.52762    0.00995     6.53673
      H   33    0.17127      0.00000     0.82564    0.00309     0.82873
      H   34    0.18650      0.00000     0.81081    0.00270     0.81350
      H   35    0.18045      0.00000     0.81672    0.00283     0.81955
      C   36   -0.18668      1.99902     4.17272    0.01493     6.18668
      H   37    0.21188      0.00000     0.78165    0.00647     0.78812
      C   38   -0.53729      1.99916     4.52819    0.00994     6.53729
      H   39    0.17125      0.00000     0.82572    0.00303     0.82875
      H   40    0.17987      0.00000     0.81728    0.00285     0.82013
      H   41    0.18650      0.00000     0.81087    0.00263     0.81350
      C   42   -0.53793      1.99916     4.52859    0.01018     6.53793
      H   43    0.19315      0.00000     0.80408    0.00277     0.80685
      H   44    0.18142      0.00000     0.81580    0.00277     0.81858
      C   45   -0.53325      1.99916     4.52388    0.01020     6.53325
      H   46    0.16848      0.00000     0.82843    0.00309     0.83152
      H   47    0.17998      0.00000     0.81727    0.00274     0.82002
      H   48    0.19339      0.00000     0.80382    0.00279     0.80661
      H   49    0.21360      0.00000     0.78007    0.00634     0.78640
      H   50    0.16858      0.00000     0.82835    0.00307     0.83142
 =======================================================================
   * Total *   -1.00000     47.97681   125.52063    0.50257   174.00000

 ******   36 imaginary frequencies (negative Signs) ******

                      1                      2                      3
                      A                      A                      A
 Frequencies --  -1460.2671             -1446.9217             -1393.2842
 Red. masses --      1.0773                 1.0729                 1.0086
 Frc consts  --      1.3535                 1.3235                 1.1536
 IR Inten    --     54.4335                44.1679                 0.0119

                      4                      5                      6
                      A                      A                      A
 Frequencies --  -1390.6351             -1387.9526             -1384.8771
 Red. masses --      1.0094                 1.0476                 1.0084
 Frc consts  --      1.1501                 1.1891                 1.1395
 IR Inten    --      0.0229                 0.8986                 0.0626

                      7                      8                      9
                      A                      A                      A
 Frequencies --  -1382.9034             -1381.4725             -1326.4077
 Red. masses --      1.0089                 1.0096                 1.0370
 Frc consts  --      1.1368                 1.1353                 1.0749
 IR Inten    --      0.0483                 0.1504                 0.0918

                     10                     11                     12
                      A                      A                      A
 Frequencies --  -1231.7553             -1230.9058             -1126.3689
 Red. masses --      1.0350                 1.0383                 1.0285
 Frc consts  --      0.9252                 0.9269                 0.7688
 IR Inten    --      0.8776                 0.6307                 1.7321

                     13                     14                     15
                      A                      A                      A
 Frequencies --  -1030.3174             -1025.3145             -1012.0398
 Red. masses --      1.0764                 1.0774                 1.0331
 Frc consts  --      0.6733                 0.6674                 0.6234
 IR Inten    --      7.6522                 8.9365                 3.6509

                     16                     17                     18
                      A                      A                      A
 Frequencies --  -1006.7105              -997.3693              -991.3710
 Red. masses --      1.0422                 1.0513                 1.0490
 Frc consts  --      0.6223                 0.6161                 0.6074
 IR Inten    --      2.6004                 4.6082                 4.2212

                     19                     20                     21
                      A                      A                      A
 Frequencies --   -988.2814              -986.0386              -984.4739
 Red. masses --      1.0264                 1.0358                 1.0435
 Frc consts  --      0.5906                 0.5933                 0.5959
 IR Inten    --      1.4196                 9.5264                11.2583

                     22                     23                     24
                      A                      A                      A
 Frequencies --   -982.2936              -980.4191              -929.1973
 Red. masses --      1.0673                 1.0344                 1.0843
 Frc consts  --      0.6068                 0.5858                 0.5516
 IR Inten    --      2.9521                 3.1530                 2.6830

                     25                     26                     27
                      A                      A                      A
 Frequencies --   -890.3854              -814.9653              -780.7511
 Red. masses --      1.0953                 1.1078                 1.0837
 Frc consts  --      0.5116                 0.4335                 0.3892
 IR Inten    --     15.6344                 9.1314                 3.6886

                     28                     29                     30
                      A                      A                      A
 Frequencies --   -753.2331              -558.6059              -440.9086
 Red. masses --      1.0817                 1.2369                 1.1111
 Frc consts  --      0.3616                 0.2274                 0.1273
 IR Inten    --      4.7304                 0.2469                 2.3377

                     31                     32                     33
                      A                      A                      A
 Frequencies --   -365.3646              -319.5562              -312.9504
 Red. masses --      1.7808                 2.0786                 2.1016
 Frc consts  --      0.1401                 0.1251                 0.1213
 IR Inten    --      0.2109                 0.0761                 0.0594

                     34                     35                     36
                      A                      A                      A
 Frequencies --   -291.0681              -166.0907              -109.2934
 Red. masses --      1.9108                 2.7887                 3.5821
 Frc consts  --      0.0954                 0.0453                 0.0252
 IR Inten    --      0.1847                 3.4435                 4.4148

                     37                     38                     39
                      A                      A                      A
 Frequencies --     78.8026               114.2727               120.4767
 Red. masses --      5.9763                 7.5306                 6.7267
 Frc consts  --      0.0219                 0.0579                 0.0575
 IR Inten    --      1.7135                 0.6580                 0.7053

                     40                     41                     42
                      A                      A                      A
 Frequencies --    151.2980               212.2433               248.2340
 Red. masses --      6.0163                 7.6936                 7.1592
 Frc consts  --      0.0811                 0.2042                 0.2599
 IR Inten    --      0.1433                 4.7979                 0.0211

                     43                     44                     45
                      A                      A                      A
 Frequencies --    270.6836               313.0258               321.9379
 Red. masses --      8.0685                 4.2893                 3.2462
 Frc consts  --      0.3483                 0.2476                 0.1982
 IR Inten    --      1.1160                 2.4047                 8.1225

                     46                     47                     48
                      A                      A                      A
 Frequencies --    330.6165               337.6077               352.9544
 Red. masses --      4.2859                 1.4150                 1.2574
 Frc consts  --      0.2760                 0.0950                 0.0923
 IR Inten    --      2.8129                 8.1743                17.4517

                     49                     50                     51
                      A                      A                      A
 Frequencies --    370.0714               397.0374               407.0750
 Red. masses --      6.4141                 1.8477                 1.4118
 Frc consts  --      0.5176                 0.1716                 0.1378
 IR Inten    --      5.6992                10.1887                 6.8092

                     52                     53                     54
                      A                      A                      A
 Frequencies --    412.4301               420.3008               429.8549
 Red. masses --      1.6629                 2.5967                 6.0249
 Frc consts  --      0.1667                 0.2703                 0.6559
 IR Inten    --      7.1259                 8.7551                 0.5062

                     55                     56                     57
                      A                      A                      A
 Frequencies --    431.8714               444.0628               510.8222
 Red. masses --      4.8352                 1.6281                 5.8923
 Frc consts  --      0.5313                 0.1892                 0.9059
 IR Inten    --      0.5977                12.7045                 1.1879

                     58                     59                     60
                      A                      A                      A
 Frequencies --    551.8083               556.9669               570.3876
 Red. masses --      3.5753                 5.7507                 5.9314
 Frc consts  --      0.6414                 1.0511                 1.1370
 IR Inten    --      1.4332                 6.4023                 7.8585

                     61                     62                     63
                      A                      A                      A
 Frequencies --    580.4056               628.9539               646.7839
 Red. masses --      6.0324                 5.8963                 5.4560
 Frc consts  --      1.1973                 1.3743                 1.3448
 IR Inten    --      0.9798                 6.8057                 0.8681

                     64                     65                     66
                      A                      A                      A
 Frequencies --    678.2060               688.3048               703.8130
 Red. masses --      4.5652                 4.6091                 7.9675
 Frc consts  --      1.2372                 1.2866                 2.3253
 IR Inten    --     22.6941                 4.4894                 0.4469

                     67                     68                     69
                      A                      A                      A
 Frequencies --    709.6880               715.8964               745.6733
 Red. masses --      6.7482                 6.4977                 3.3687
 Frc consts  --      2.0025                 1.9620                 1.1036
 IR Inten    --     12.9445                15.2977                 0.7867

                     70                     71                     72
                      A                      A                      A
 Frequencies --    749.0742               782.3706               793.6584
 Red. masses --      1.7594                 4.2327                 4.6511
 Frc consts  --      0.5816                 1.5265                 1.7261
 IR Inten    --      2.5590                 1.2128                14.3776

                     73                     74                     75
                      A                      A                      A
 Frequencies --    803.7387               820.7645               831.7710
 Red. masses --      4.2462                 5.4209                 1.7839
 Frc consts  --      1.6161                 2.1516                 0.7271
 IR Inten    --      9.9243                 4.1775                 0.6692

                     76                     77                     78
                      A                      A                      A
 Frequencies --    834.3222               840.6805               846.3897
 Red. masses --      2.6190                 1.5210                 2.9898
 Frc consts  --      1.0741                 0.6334                 1.2619
 IR Inten    --      1.8008                 7.4357                 8.3051

                     79                     80                     81
                      A                      A                      A
 Frequencies --    849.7900               865.4800               886.3819
 Red. masses --      1.7483                 2.9080                 6.0717
 Frc consts  --      0.7439                 1.2834                 2.8106
 IR Inten    --      3.4782                 9.1976                 5.8362

                     82                     83                     84
                      A                      A                      A
 Frequencies --    889.2866               917.2778               923.2680
 Red. masses --      2.0065                 2.3531                 1.7648
 Frc consts  --      0.9349                 1.1665                 0.8863
 IR Inten    --     20.8778                24.1799                13.7977

                     85                     86                     87
                      A                      A                      A
 Frequencies --    927.1734               959.5731               966.4677
 Red. masses --      1.8719                 1.2504                 1.0903
 Frc consts  --      0.9481                 0.6783                 0.6000
 IR Inten    --      0.6259                 2.2221                 2.8308

                     88                     89                     90
                      A                      A                      A
 Frequencies --    969.9923               977.7555               991.9241
 Red. masses --      1.0513                 1.1721                 1.2352
 Frc consts  --      0.5828                 0.6602                 0.7160
 IR Inten    --      6.9708                 6.0352                 8.2458

                     91                     92                     93
                      A                      A                      A
 Frequencies --   1004.5356              1004.7676              1016.8753
 Red. masses --      1.0320                 1.0290                 1.7002
 Frc consts  --      0.6135                 0.6121                 1.0358
 IR Inten    --      0.4067                 0.9692                 6.2221

                     94                     95                     96
                      A                      A                      A
 Frequencies --   1078.5153              1093.8877              1114.0198
 Red. masses --      1.6915                 4.0155                 1.6579
 Frc consts  --      1.1592                 2.8310                 1.2123
 IR Inten    --     17.8808                 7.1887                 0.1250

                     97                     98                     99
                      A                      A                      A
 Frequencies --   1121.8387              1139.0826              1164.1651
 Red. masses --      3.1812                 2.5502                 4.1725
 Frc consts  --      2.3588                 1.9495                 3.3318
 IR Inten    --      4.9092                 2.7835                10.0262

                    100                    101                    102
                      A                      A                      A
 Frequencies --   1189.3368              1206.1828              1220.5561
 Red. masses --      7.3519                 4.7756                 5.4847
 Frc consts  --      6.1271                 4.0936                 4.8142
 IR Inten    --    232.4080                10.7226                 3.3205

                    103                    104                    105
                      A                      A                      A
 Frequencies --   1225.0962              1303.9548              1309.3954
 Red. masses --      5.7006                 7.9741                 7.5555
 Frc consts  --      5.0409                 7.9883                 7.6323
 IR Inten    --      4.3742                55.1522                 1.4725

                    106                    107                    108
                      A                      A                      A
 Frequencies --   1320.1600              1391.6539              1445.2926
 Red. masses --      7.0687                 9.7164                 9.6385
 Frc consts  --      7.2585                11.0871                11.8623
 IR Inten    --      0.3419                51.6736                39.7068

                    109                    110                    111
                      A                      A                      A
 Frequencies --   1480.3461              1484.4592              1497.5953
 Red. masses --      8.9512                10.3450                10.3965
 Frc consts  --     11.5574                13.4313                13.7381
 IR Inten    --      9.6892                22.5809               123.7058

                    112                    113                    114
                      A                      A                      A
 Frequencies --   1509.7058              1562.1657              1665.5491
 Red. masses --     10.6751                 9.7935                10.5996
 Frc consts  --     14.3353                14.0813                17.3243
 IR Inten    --     85.9602               141.8217               462.4763

                    115                    116                    117
                      A                      A                      A
 Frequencies --   1686.5293              1716.7971              1720.0324
 Red. masses --     11.2727                11.4101                11.5627
 Frc consts  --     18.8914                19.8143                20.1550
 IR Inten    --    263.1286               458.8443                74.3869

                    118                    119                    120
                      A                      A                      A
 Frequencies --   1730.1423              4334.0009              4364.1507
 Red. masses --     11.0355                 1.0870                 1.0875
 Frc consts  --     19.4627                12.0293                12.2033
 IR Inten    --     26.3825                21.2860                 1.3863

                    121                    122                    123
                      A                      A                      A
 Frequencies --   4365.7264              4414.1697              4462.9139
 Red. masses --      1.0871                 1.0599                 1.0319
 Frc consts  --     12.2078                12.1676                12.1100
 IR Inten    --      1.6606                11.6998                15.0969

                    124                    125                    126
                      A                      A                      A
 Frequencies --   4463.1293              4463.3389              4466.7918
 Red. masses --      1.0325                 1.0322                 1.0323
 Frc consts  --     12.1180                12.1149                12.1356
 IR Inten    --      8.8240                27.1134                19.7490

                    127                    128                    129
                      A                      A                      A
 Frequencies --   4472.4429              4540.0345              4663.1460
 Red. masses --      1.0320                 1.1087                 1.1064
 Frc consts  --     12.1622                13.4648                14.1744
 IR Inten    --     18.3134                 3.2803                 9.4116

                    130                    131                    132
                      A                      A                      A
 Frequencies --   4665.7426              4666.4970              4667.9364
 Red. masses --      1.1066                 1.1064                 1.1066
 Frc consts  --     14.1935                14.1949                14.2060
 IR Inten    --      2.7629                13.0007                 8.0583

                    133                    134                    135
                      A                      A                      A
 Frequencies --   4672.1266              4675.1250              4675.6524
 Red. masses --      1.1068                 1.1068                 1.1067
 Frc consts  --     14.2342                14.2528                14.2544
 IR Inten    --      6.9306                 8.7586                 9.0988

                    136                    137                    138
                      A                      A                      A
 Frequencies --   4678.1463              4685.3975              4687.4207
 Red. masses --      1.1065                 1.1068                 1.1069
 Frc consts  --     14.2675                14.3157                14.3291
 IR Inten    --      7.3133                 4.9847                 4.8340

                    139                    140                    141
                      A                      A                      A
 Frequencies --   5001.4118              5004.0832              5016.2610
 Red. masses --      1.0871                 1.0877                 1.0895
 Frc consts  --     16.0209                16.0473                16.1529
 IR Inten    --      4.3032                 4.6754                18.5966

                    142                    143                    144
                      A                      A                      A
 Frequencies --   5021.5281              5037.4180              5038.0889
 Red. masses --      1.0878                 1.0914                 1.0900
 Frc consts  --     16.1604                16.3178                16.3014
 IR Inten    --      3.1855                 8.2158                 8.9467

 - Thermochemistry -
 -------------------
 Temperature   298.150 Kelvin.  Pressure   1.00000 Atm.
 Atom     1 has atomic number  7 and mass  14.00307

 Molecular mass:   320.20144 amu.
 Principal axes and moments of inertia in atomic units:
                           1         2         3
     Eigenvalues --  5420.304019811.82712**********
           X            0.99981  -0.01442   0.01278
           Y            0.01425   0.99981   0.01329
           Z           -0.01297  -0.01310   0.99983
 This molecule is an asymmetric top.
 Rotational symmetry number  1.
 Warning -- assumption of classical behavior for rotation
           may cause significant error
 Rotational temperatures (Kelvin)      0.01598     0.00883     0.00754
 Rotational constants (GHZ):           0.33296     0.18394     0.15715
   36 imaginary frequencies ignored.
 Zero-point vibrational energy    1145334.8 (Joules/Mol)
                                  273.74159 (Kcal/Mol)
 Warning -- explicit consideration of  25 degrees of freedom as
           vibrations may cause significant error
 Vibrational temperatures:    113.38   164.41   173.34   217.68   305.37
          (Kelvin)            357.15   389.45   450.37   463.20   475.68
                              485.74   507.82   532.45   571.25   585.69
                              593.39   604.72   618.47   621.37   638.91
                              734.96   793.93   801.35   820.66   835.07
                              904.92   930.58   975.79   990.32  1012.63
                             1021.08  1030.02  1072.86  1077.75  1125.66
                             1141.90  1156.40  1180.90  1196.73  1200.40
                             1209.55  1217.77  1222.66  1245.23  1275.31
                             1279.49  1319.76  1328.38  1334.00  1380.61
                             1390.53  1395.60  1406.77  1427.16  1445.30
                             1445.64  1463.06  1551.74  1573.86  1602.83
                             1614.08  1638.89  1674.97  1711.19  1735.43
                             1756.11  1762.64  1876.10  1883.93  1899.42
                             2002.28  2079.45  2129.89  2135.81  2154.71
                             2172.13  2247.61  2396.35  2426.54  2470.09
                             2474.74  2489.29  6235.66  6279.04  6281.31
                             6351.01  6421.14  6421.45  6421.75  6426.72
                             6434.85  6532.10  6709.23  6712.96  6714.05
                             6716.12  6722.15  6726.46  6727.22  6730.81
                             6741.24  6744.15  7195.92  7199.76  7217.28
                             7224.86  7247.72  7248.69

 Zero-point correction=                           0.436235 (Hartree/Particle)
 Thermal correction to Energy=                    0.451208
 Thermal correction to Enthalpy=                  0.452153
 Thermal correction to Gibbs Free Energy=         0.395449
 Sum of electronic and zero-point Energies=           -981.335723
 Sum of electronic and thermal Energies=              -981.320750
 Sum of electronic and thermal Enthalpies=            -981.319806
 Sum of electronic and thermal Free Energies=         -981.376509

                     E (Thermal)             CV                S
                      KCal/Mol        Cal/Mol-Kelvin    Cal/Mol-Kelvin
 Total                  283.138             67.019            119.342
 Electronic               0.000              0.000              0.000
 Translational            0.889              2.981             43.187
 Rotational               0.889              2.981             34.767
 Vibrational            281.360             61.057             41.387
 Vibration     1          0.600              1.963              3.920
 Vibration     2          0.607              1.938              3.195
 Vibration     3          0.609              1.932              3.093
 Vibration     4          0.619              1.901              2.656
 Vibration     5          0.643              1.822              2.024
 Vibration     6          0.662              1.766              1.743
 Vibration     7          0.674              1.727              1.592
 Vibration     8          0.701              1.649              1.346
 Vibration     9          0.707              1.631              1.300
 Vibration    10          0.713              1.614              1.257
 Vibration    11          0.718              1.600              1.223
 Vibration    12          0.729              1.569              1.153
 Vibration    13          0.742              1.534              1.079
 Vibration    14          0.764              1.476              0.974
 Vibration    15          0.772              1.455              0.937
 Vibration    16          0.776              1.443              0.918
 Vibration    17          0.783              1.426              0.891
 Vibration    18          0.791              1.405              0.859
 Vibration    19          0.793              1.401              0.853
 Vibration    20          0.804              1.374              0.814
 Vibration    21          0.866              1.226              0.632
 Vibration    22          0.907              1.136              0.540
 Vibration    23          0.912              1.124              0.530
 Vibration    24          0.926              1.095              0.503
 Vibration    25          0.937              1.074              0.485

 Normal termination of Gaussian 16 at Mon Mar  6 12:56:41 2023.
