 Gaussian 16, Revision C.01,
 Gaussian 16:  ES64L-G16RevC.01  3-Jul-2019

 ----------------------------------------------------------------------
 #p pop=(regular,nbo,savenbos) freq=noraman def2svp empiricaldispersion
 =gd3bj output=wfx pbe1pbe
 ----------------------------------------------------------------------

 ----------------------------------------
 XIVNIA_Complex_1_Ligand_0_NN_Cu_oriented
 ----------------------------------------
 Symbolic Z-matrix:
 Charge =  0 Multiplicity = 1

                         Standard orientation:
 ---------------------------------------------------------------------
 Center     Atomic      Atomic             Coordinates (Angstroms)
 Number     Number       Type             X           Y           Z
 ---------------------------------------------------------------------
      1          7           0       -1.391012   -1.248839    0.028218
      2          7           0        1.454289   -1.159668   -0.007021
      3          6           0       -0.690001    0.048484    0.292917
      4          1           0       -0.572879    0.113616    1.283557
      5          6           0        1.420450    1.362837    0.106292
      6          1           0        2.314202    1.389013   -0.318678
      7          1           0        1.548906    1.362729    1.088204
      8          6           0        0.699665    0.084001   -0.309812
      9          1           0        0.585841    0.120851   -1.302528
     10          6           0        2.506870   -1.428796   -0.988608
     11          1           0        3.148988   -0.688835   -0.990051
     12          1           0        2.107389   -1.517810   -1.879012
     13          1           0        2.967715   -2.261618   -0.752987
     14          6           0        2.061405   -1.156389    1.350515
     15          1           0        2.741290   -0.454028    1.402372
     16          1           0        2.475657   -2.026705    1.525031
     17          1           0        1.364696   -0.986590    2.018678
     18          6           0       -1.470259    1.294697   -0.136993
     19          1           0       -1.574660    1.292094   -1.121080
     20          1           0       -2.374536    1.267986    0.265664
     21          6           0       -1.979045   -1.298504   -1.334400
     22          1           0       -2.661591   -0.601476   -1.420728
     23          1           0       -2.389623   -2.176581   -1.480876
     24          1           0       -1.275549   -1.151549   -1.999252
     25          6           0        0.626707    2.608634   -0.303142
     26          1           0        0.569885    2.654891   -1.289849
     27          6           0       -2.466406   -1.466515    1.013705
     28          1           0       -3.107743   -0.726763    0.966049
     29          1           0       -2.082698   -1.507095    1.914278
     30          1           0       -2.925925   -2.309367    0.816365
     31          6           0       -0.773989    2.566746    0.286494
     32          1           0       -0.720314    2.605604    1.274843
     33          1           0       -1.290276    3.350623   -0.026452
     34          1           0        1.095900    3.419395    0.016258
 ---------------------------------------------------------------------

 SCF Done:  E(RPBE1PBE) =  -502.612183181     A.U. after   12 cycles

 The electronic state is 1-A.
 Alpha  occ. eigenvalues --  -14.35609 -14.35363 -10.22799 -10.22777 -10.20070
 Alpha  occ. eigenvalues --  -10.20039 -10.20035 -10.19975 -10.19818 -10.19731
 Alpha  occ. eigenvalues --  -10.19465 -10.19326  -0.93025  -0.90618  -0.84646
 Alpha  occ. eigenvalues --   -0.76582  -0.76076  -0.73421  -0.73126  -0.67176
 Alpha  occ. eigenvalues --   -0.66457  -0.61064  -0.60786  -0.57893  -0.50993
 Alpha  occ. eigenvalues --   -0.49392  -0.48434  -0.48339  -0.47324  -0.46207
 Alpha  occ. eigenvalues --   -0.45543  -0.44223  -0.43926  -0.42610  -0.41460
 Alpha  occ. eigenvalues --   -0.40695  -0.39533  -0.38236  -0.37977  -0.37508
 Alpha  occ. eigenvalues --   -0.36859  -0.35898  -0.35342  -0.32855  -0.32777
 Alpha  occ. eigenvalues --   -0.31266  -0.20616  -0.18780
 Alpha virt. eigenvalues --    0.07557   0.08939   0.09424   0.09602   0.12579
 Alpha virt. eigenvalues --    0.13173   0.14115   0.14395   0.14856   0.14929
 Alpha virt. eigenvalues --    0.16010   0.16251   0.16347   0.17212   0.17872

 Mulliken charges:
               1
     1  N   -0.438614
     2  N   -0.442107
     3  C    0.040846
     4  H   -0.050134
     5  C    0.084207
     6  H   -0.021973
     7  H   -0.019937
     8  C    0.047962
     9  H   -0.050197
    10  C    0.280073
    11  H   -0.053838
    12  H   -0.019458
    13  H   -0.019781
    14  C    0.262961
    15  H   -0.040534
    16  H   -0.016911
    17  H   -0.018124
    18  C    0.083883
    19  H   -0.021404
    20  H   -0.023867
    21  C    0.265336
    22  H   -0.041587
    23  H   -0.017080
    24  H   -0.018847
    25  C    0.073573
    26  H   -0.026117
    27  C    0.277117
    28  H   -0.052695
    29  H   -0.018377
    30  H   -0.020128
    31  C    0.083823
    32  H   -0.026179
    33  H   -0.021233
    34  H   -0.020657
 Sum of Mulliken charges =  -0.00000

 Dipole moment (field-independent basis, Debye):
    X=             -0.0436    Y=              1.3019    Z=             -0.0255  Tot=              1.3029
 Quadrupole moment (field-independent basis, Debye-Ang):
   XX=            -72.3849   YY=            -78.3676   ZZ=            -73.0925
   XY=              0.0442   XZ=              0.1550   YZ=              0.1182

  Exact polarizability:     111.578      -0.070     110.131      -0.469       0.098      95.964
 Approx polarizability:     138.450      -0.251     139.131      -0.009       0.114     137.357

 Summary of Natural Population Analysis:

                                       Natural Population
                Natural  -----------------------------------------------
    Atom  No    Charge         Core      Valence    Rydberg      Total
 -----------------------------------------------------------------------
      N    1   -0.53686      1.99943     5.52278    0.01464     7.53686
      N    2   -0.53891      1.99941     5.52481    0.01469     7.53891
      C    3   -0.01195      1.99894     3.99139    0.02162     6.01195
      H    4    0.18771      0.00000     0.80776    0.00453     0.81229
      C    5   -0.40357      1.99909     4.39073    0.01374     6.40357
      H    6    0.19981      0.00000     0.79680    0.00339     0.80019
      H    7    0.18959      0.00000     0.80640    0.00401     0.81041
      C    8   -0.01255      1.99895     3.99210    0.02151     6.01255
      H    9    0.18884      0.00000     0.80668    0.00448     0.81116
      C   10   -0.32738      1.99918     4.31705    0.01115     6.32738
      H   11    0.14834      0.00000     0.84654    0.00512     0.85166
      H   12    0.18043      0.00000     0.81727    0.00229     0.81957
      H   13    0.18297      0.00000     0.81475    0.00228     0.81703
      C   14   -0.33811      1.99917     4.32723    0.01172     6.33811
      H   15    0.15271      0.00000     0.84218    0.00512     0.84729
      H   16    0.18544      0.00000     0.81233    0.00223     0.81456
      H   17    0.18073      0.00000     0.81693    0.00233     0.81927
      C   18   -0.40546      1.99909     4.39254    0.01383     6.40546
      H   19    0.18919      0.00000     0.80673    0.00407     0.81081
      H   20    0.19953      0.00000     0.79694    0.00353     0.80047
      C   21   -0.33787      1.99917     4.32693    0.01178     6.33787
      H   22    0.15278      0.00000     0.84216    0.00506     0.84722
      H   23    0.18534      0.00000     0.81243    0.00223     0.81466
      H   24    0.18042      0.00000     0.81720    0.00238     0.81958
      C   25   -0.36802      1.99913     4.35624    0.01265     6.36802
      H   26    0.18470      0.00000     0.81130    0.00400     0.81530
      C   27   -0.32923      1.99917     4.31888    0.01118     6.32923
      H   28    0.14959      0.00000     0.84540    0.00501     0.85041
      H   29    0.18079      0.00000     0.81693    0.00228     0.81921
      H   30    0.18294      0.00000     0.81481    0.00225     0.81706
      C   31   -0.36852      1.99913     4.35680    0.01259     6.36852
      H   32    0.18531      0.00000     0.81065    0.00404     0.81469
      H   33    0.19603      0.00000     0.80027    0.00370     0.80397
      H   34    0.19525      0.00000     0.80109    0.00366     0.80475
 =======================================================================
   * Total *    0.00000     23.98986    71.76105    0.24909    96.00000

 ******   20 imaginary frequencies (negative Signs) ******

                      1                      2                      3
                      A                      A                      A
 Frequencies --  -1236.1263             -1232.8791             -1231.6649
 Red. masses --      1.0083                 1.0083                 1.0127
 Frc consts  --      0.9077                 0.9030                 0.9052
 IR Inten    --      0.0014                 0.0049                 0.0712

                      4                      5                      6
                      A                      A                      A
 Frequencies --  -1228.2705              -921.1164              -888.8772
 Red. masses --      1.0132                 1.0610                 1.0343
 Frc consts  --      0.9006                 0.5304                 0.4815
 IR Inten    --      0.0529                 3.0685                 1.2687

                      7                      8                      9
                      A                      A                      A
 Frequencies --   -879.1358              -861.7841              -762.7893
 Red. masses --      1.0396                 1.0469                 1.1944
 Frc consts  --      0.4734                 0.4581                 0.4095
 IR Inten    --      2.7545                 1.7732                 8.5954

                     10                     11                     12
                      A                      A                      A
 Frequencies --   -757.8875              -730.9914              -727.4268
 Red. masses --      1.1565                 1.1077                 1.1039
 Frc consts  --      0.3914                 0.3487                 0.3442
 IR Inten    --     11.0825                 8.4350                 8.1428

                     13                     14                     15
                      A                      A                      A
 Frequencies --   -717.9652              -696.3530              -661.0697
 Red. masses --      1.0888                 1.1310                 1.1092
 Frc consts  --      0.3307                 0.3231                 0.2856
 IR Inten    --      2.2336                 0.0525                 0.0111

                     16                     17                     18
                      A                      A                      A
 Frequencies --   -641.0496              -323.9397              -316.4589
 Red. masses --      1.1021                 1.8005                 2.1055
 Frc consts  --      0.2668                 0.1113                 0.1242
 IR Inten    --      1.0256                 0.5058                 0.0833

                     19                     20                     21
                      A                      A                      A
 Frequencies --   -232.2072               -97.8800               154.7358
 Red. masses --      1.6058                 1.3859                 1.6972
 Frc consts  --      0.0510                 0.0078                 0.0239
 IR Inten    --      1.7182                 0.3904                 0.3974

                     22                     23                     24
                      A                      A                      A
 Frequencies --    168.2131               215.1842               292.1625
 Red. masses --      1.6740                 4.8233                 2.0962
 Frc consts  --      0.0279                 0.1316                 0.1054
 IR Inten    --      0.6207                 0.0968                 0.4458

                     25                     26                     27
                      A                      A                      A
 Frequencies --    353.5163               427.9792               459.9151
 Red. masses --      1.2105                 3.0343                 2.1019
 Frc consts  --      0.0891                 0.3275                 0.2619
 IR Inten    --      3.1496                 1.9139                 1.2124

                     28                     29                     30
                      A                      A                      A
 Frequencies --    474.0509               484.4902               487.2334
 Red. masses --      3.6857                 1.7146                 2.7430
 Frc consts  --      0.4880                 0.2371                 0.3837
 IR Inten    --      0.0117                 2.7955                 1.6501

                     31                     32                     33
                      A                      A                      A
 Frequencies --    555.5775               582.0024               712.0648
 Red. masses --      3.5547                 2.8976                 1.9905
 Frc consts  --      0.6465                 0.5783                 0.5946
 IR Inten    --      0.0151                 1.8857                 0.5712

                     34                     35                     36
                      A                      A                      A
 Frequencies --    746.3221               750.2051               759.1566
 Red. masses --      3.0607                 3.8451                 2.1577
 Frc consts  --      1.0044                 1.2750                 0.7327
 IR Inten    --      6.5922                 7.2078                 2.1350

                     37                     38                     39
                      A                      A                      A
 Frequencies --    770.8605               779.2194               794.7702
 Red. masses --      1.8410                 1.9307                 2.0543
 Frc consts  --      0.6445                 0.6907                 0.7645
 IR Inten    --      3.9824                 7.9550                 0.8743

                     40                     41                     42
                      A                      A                      A
 Frequencies --    807.7578               828.4798               845.1538
 Red. masses --      1.8502                 1.4030                 1.2479
 Frc consts  --      0.7112                 0.5674                 0.5252
 IR Inten    --      0.5858                 3.0077                 3.4434

                     43                     44                     45
                      A                      A                      A
 Frequencies --    846.8299               864.6179               885.4465
 Red. masses --      1.4143                 1.5137                 1.3370
 Frc consts  --      0.5976                 0.6667                 0.6176
 IR Inten    --      1.9744                 2.9521                 0.5957

                     46                     47                     48
                      A                      A                      A
 Frequencies --    899.2883               915.4709               955.4074
 Red. masses --      1.7512                 2.3392                 1.5070
 Frc consts  --      0.8344                 1.1551                 0.8105
 IR Inten    --      5.1081                13.8241                 2.2930

                     49                     50                     51
                      A                      A                      A
 Frequencies --    962.2363              1001.1838              1019.3420
 Red. masses --      1.8728                 3.5426                 2.3443
 Frc consts  --      1.0217                 2.0922                 1.4352
 IR Inten    --      6.7880                 5.8445                 6.1895

                     52                     53                     54
                      A                      A                      A
 Frequencies --   1024.3499              1091.1869              1097.1071
 Red. masses --      2.0962                 2.4842                 1.5881
 Frc consts  --      1.2959                 1.7428                 1.1262
 IR Inten    --      4.6523                 3.1708                 3.9548

                     55                     56                     57
                      A                      A                      A
 Frequencies --   1101.9390              1105.3889              1110.5149
 Red. masses --      1.2357                 1.4279                 1.2620
 Frc consts  --      0.8841                 1.0279                 0.9169
 IR Inten    --      2.1204                 7.0329                13.3070

                     58                     59                     60
                      A                      A                      A
 Frequencies --   1113.7192              1115.5138              1122.1059
 Red. masses --      1.1277                 1.2004                 1.1382
 Frc consts  --      0.8241                 0.8801                 0.8444
 IR Inten    --      5.9825                 0.6387                 4.1459

                     61                     62                     63
                      A                      A                      A
 Frequencies --   1123.9620              1131.4885              1145.3157
 Red. masses --      1.1140                 1.7352                 1.1079
 Frc consts  --      0.8292                 1.3089                 0.8562
 IR Inten    --      0.8793                 6.8453                10.4890

                     64                     65                     66
                      A                      A                      A
 Frequencies --   1152.0256              1155.7367              1159.9259
 Red. masses --      1.1577                 1.1398                 1.7799
 Frc consts  --      0.9053                 0.8970                 1.4109
 IR Inten    --     19.9320                46.8519                 6.6888

                     67                     68                     69
                      A                      A                      A
 Frequencies --   1167.8638              1190.5784              1221.1020
 Red. masses --      1.6927                 3.1009                 4.6359
 Frc consts  --      1.3602                 2.5898                 4.0728
 IR Inten    --      7.1738                 3.7387                 0.1263

                     70                     71                     72
                      A                      A                      A
 Frequencies --   1239.5540              1241.9117              1250.7490
 Red. masses --      2.1137                 3.4083                 2.6613
 Frc consts  --      1.9135                 3.0972                 2.4529
 IR Inten    --     25.1219                14.7584                23.6154

                     73                     74                     75
                      A                      A                      A
 Frequencies --   1264.2809              1309.8489              4115.9289
 Red. masses --      3.1133                 5.5380                 1.0867
 Frc consts  --      2.9320                 5.5982                10.8471
 IR Inten    --     34.4111                 5.1833                 0.6293

                     76                     77                     78
                      A                      A                      A
 Frequencies --   4125.2499              4182.2415              4184.2537
 Red. masses --      1.0870                 1.0594                 1.0596
 Frc consts  --     10.8984                10.9175                10.9299
 IR Inten    --     27.6179                16.9358                13.1145

                     79                     80                     81
                      A                      A                      A
 Frequencies --   4185.7385              4191.7939              4223.4979
 Red. masses --      1.0604                 1.0609                 1.0307
 Frc consts  --     10.9466                10.9826                10.8325
 IR Inten    --     15.0583                22.2535                47.1672

                     82                     83                     84
                      A                      A                      A
 Frequencies --   4225.9168              4233.7484              4234.6126
 Red. masses --      1.0310                 1.0308                 1.0307
 Frc consts  --     10.8478                10.8864                10.8891
 IR Inten    --     31.8448                41.6483                17.7569

                     85                     86                     87
                      A                      A                      A
 Frequencies --   4292.1295              4294.8605              4298.0631
 Red. masses --      1.1085                 1.1086                 1.1083
 Frc consts  --     12.0320                12.0480                12.0630
 IR Inten    --      7.0796                12.1870                 6.8986

                     88                     89                     90
                      A                      A                      A
 Frequencies --   4304.2906              4404.5082              4405.2741
 Red. masses --      1.1084                 1.1070                 1.1066
 Frc consts  --     12.0988                12.6528                12.6523
 IR Inten    --     20.6122                27.8020                27.8227

                     91                     92                     93
                      A                      A                      A
 Frequencies --   4415.2925              4419.8326              4424.8373
 Red. masses --      1.1073                 1.1073                 1.1077
 Frc consts  --     12.7189                12.7448                12.7780
 IR Inten    --     10.8380                13.9774                 7.1964

                     94                     95                     96
                      A                      A                      A
 Frequencies --   4430.2922              4432.8540              4436.8200
 Red. masses --      1.1078                 1.1079                 1.1076
 Frc consts  --     12.8109                12.8263                12.8467
 IR Inten    --      6.0856                 6.9017                 7.7725

 - Thermochemistry -
 -------------------
 Temperature   298.150 Kelvin.  Pressure   1.00000 Atm.
 Atom     1 has atomic number  7 and mass  14.00307

 Molecular mass:   170.17830 amu.
 Principal axes and moments of inertia in atomic units:
                           1         2         3
     Eigenvalues --  1824.923472077.683473128.38328
           X            1.00000   0.00115   0.00146
           Y           -0.00115   1.00000   0.00070
           Z           -0.00146  -0.00070   1.00000
 This molecule is an asymmetric top.
 Rotational symmetry number  1.
 Warning -- assumption of classical behavior for rotation
           may cause significant error
 Rotational temperatures (Kelvin)      0.04746     0.04169     0.02769
 Rotational constants (GHZ):           0.98894     0.86863     0.57689
   20 imaginary frequencies ignored.
 Zero-point vibrational energy     848733.0 (Joules/Mol)
                                  202.85206 (Kcal/Mol)
 Warning -- explicit consideration of  12 degrees of freedom as
           vibrations may cause significant error
 Vibrational temperatures:    222.63   242.02   309.60   420.36   508.63
          (Kelvin)            615.77   661.72   682.05   697.07   701.02
                              799.35   837.37  1024.50  1073.79  1079.38
                             1092.26  1109.10  1121.12  1143.50  1162.18
                             1192.00  1215.99  1218.40  1243.99  1273.96
                             1293.88  1317.16  1374.62  1384.44  1440.48
                             1466.61  1473.81  1569.97  1578.49  1585.44
                             1590.41  1597.78  1602.39  1604.98  1614.46
                             1617.13  1627.96  1647.85  1657.51  1662.85
                             1668.87  1680.30  1712.98  1756.89  1783.44
                             1786.83  1799.55  1819.02  1884.58  5921.90
                             5935.31  6017.31  6020.21  6022.34  6031.06
                             6076.67  6080.15  6091.42  6092.66  6175.42
                             6179.35  6183.95  6192.91  6337.10  6338.21
                             6352.62  6359.15  6366.35  6374.20  6377.89
                             6383.59

 Zero-point correction=                           0.323265 (Hartree/Particle)
 Thermal correction to Energy=                    0.332049
 Thermal correction to Enthalpy=                  0.332994
 Thermal correction to Gibbs Free Energy=         0.289666
 Sum of electronic and zero-point Energies=           -502.288918
 Sum of electronic and thermal Energies=              -502.280134
 Sum of electronic and thermal Enthalpies=            -502.279190
 Sum of electronic and thermal Free Energies=         -502.322517

                     E (Thermal)             CV                S
                      KCal/Mol        Cal/Mol-Kelvin    Cal/Mol-Kelvin
 Total                  208.364             40.193             91.190
 Electronic               0.000              0.000              0.000
 Translational            0.889              2.981             41.303
 Rotational               0.889              2.981             30.851
 Vibrational            206.587             34.232             19.036
 Vibration     1          0.620              1.897              2.613
 Vibration     2          0.625              1.882              2.455
 Vibration     3          0.645              1.818              1.999
 Vibration     4          0.688              1.688              1.461
 Vibration     5          0.730              1.568              1.150
 Vibration     6          0.789              1.409              0.865
 Vibration     7          0.818              1.339              0.766
 Vibration     8          0.831              1.308              0.726
 Vibration     9          0.841              1.284              0.698
 Vibration    10          0.843              1.278              0.691
 Vibration    11          0.911              1.127              0.533
 Vibration    12          0.939              1.070              0.482

 1\1\GINC-JST009\Freq\RPBE1PBE\def2SVP\C10H22N2\LAPLAZA\04-Mar-2023\0\\
 #p pop=(regular,nbo,savenbos) freq=noraman def2svp empiricaldispersion
 =gd3bj output=wfx pbe1pbe\\XIVNIA_Complex_1_Ligand_0_NN_Cu_oriented\\0
 ,1\N,-0.68279448,1.93522369,0.\N,1.96203821,0.88175642,0.\C,0.47084878
 ,2.83724421,0.316218\H,0.58057391,2.82401208,1.30975312\C,2.93414901,3
 .20400547,0.19792768\H,3.77406738,2.88234205,-0.21577338\H,3.02845937,
 3.12668873,1.18066902\C,1.77335945,2.33081913,-0.26919967\H,1.70737144
 ,2.43625007,-1.26133407\C,2.8430813,0.24074126,-0.97812655\H,3.7268349

 Normal termination of Gaussian 16 at Sat Mar  4 12:19:49 2023.
