 Gaussian 16, Revision C.01,
 Gaussian 16:  ES64L-G16RevC.01  3-Jul-2019

 ----------------------------------------------------------------------
 #p pop=(regular,nbo,savenbos) freq=noraman def2svp empiricaldispersion
 =gd3bj output=wfx pbe1pbe
 ----------------------------------------------------------------------

 ----------------------------------------
 XUKXAC_Complex_0_Ligand_1_ON_Cu_oriented
 ----------------------------------------
 Symbolic Z-matrix:
 Charge = -1 Multiplicity = 1

                         Standard orientation:
 ---------------------------------------------------------------------
 Center     Atomic      Atomic             Coordinates (Angstroms)
 Number     Number       Type             X           Y           Z
 ---------------------------------------------------------------------
      1          7           0       -1.243028    1.748407    0.338380
      2          1           0       -0.444187    2.072356    0.559357
      3          1           0       -1.584368    2.394166   -0.168463
      4          6           0       -1.196142    0.465258   -0.407422
      5          6           0        0.042356   -0.341130   -0.024982
      6          1           0        0.111295   -0.387517    0.960954
      7          6           0        1.326618    0.283458   -0.593199
      8          1           0        1.290675    1.265296   -0.470997
      9          6           0        2.573593   -0.254047    0.072556
     10          8           0        2.547011   -1.227406    0.827279
     11          7           0        3.710709    0.407139   -0.190192
     12          1           0        4.466594    0.147417    0.180111
     13          1           0        3.701798    1.099394   -0.732915
     14          8           0       -2.799932   -1.266705   -0.819550
     15          6           0       -2.456316   -0.335004   -0.072273
     16          8           0       -3.084862   -0.015941    1.005889
     17          1           0       -0.050971   -1.265405   -0.367876
     18          1           0       -1.176745    0.654711   -1.389623
     19          1           0        1.373751    0.099971   -1.564881
 ---------------------------------------------------------------------

 SCF Done:  E(RPBE1PBE) =  -530.078798003     A.U. after   18 cycles

 The electronic state is 1-A.
 Alpha  occ. eigenvalues --  -19.06713 -18.91612 -18.90146 -14.30459 -14.18028
 Alpha  occ. eigenvalues --  -10.22774 -10.10357 -10.07999 -10.07184 -10.06379
 Alpha  occ. eigenvalues --   -0.95041  -0.85978  -0.80553  -0.76452  -0.69756
 Alpha  occ. eigenvalues --   -0.69083  -0.59825  -0.53086  -0.51250  -0.47852
 Alpha  occ. eigenvalues --   -0.40013  -0.39140  -0.35704  -0.33679  -0.31847
 Alpha  occ. eigenvalues --   -0.30663  -0.29359  -0.25335  -0.23690  -0.22586
 Alpha  occ. eigenvalues --   -0.20881  -0.19281  -0.16926  -0.16011  -0.15375
 Alpha  occ. eigenvalues --   -0.08930  -0.02425  -0.01990   0.00314
 Alpha virt. eigenvalues --    0.13856   0.16018   0.19990   0.22173   0.24009
 Alpha virt. eigenvalues --    0.26334   0.27205   0.28703   0.31468   0.33106
 Alpha virt. eigenvalues --    0.34268   0.35073   0.37806   0.40318   0.41039

 Mulliken charges:
               1
     1  N   -0.052329
     2  H   -0.014070
     3  H    0.011910
     4  C   -0.032793
     5  C    0.094756
     6  H   -0.011642
     7  C    0.042613
     8  H   -0.038389
     9  C    0.038749
    10  O   -0.298021
    11  N    0.053712
    12  H    0.045052
    13  H    0.041618
    14  O   -0.440575
    15  C    0.113907
    16  O   -0.466777
    17  H   -0.011732
    18  H   -0.072389
    19  H   -0.003600
 Sum of Mulliken charges =  -1.00000

 Dipole moment (field-independent basis, Debye):
    X=             14.3155    Y=              5.8916    Z=             -3.6325  Tot=             15.9010
 Quadrupole moment (field-independent basis, Debye-Ang):
   XX=            -97.4818   YY=            -65.3230   ZZ=            -66.8065
   XY=             -0.1879   XZ=             -0.0757   YZ=             -3.6095

  Exact polarizability:      83.768       4.038      64.660      -3.179      -1.187      58.975
 Approx polarizability:      96.374       5.922      96.340      -7.587      -0.595      94.328

 Summary of Natural Population Analysis:

                                       Natural Population
                Natural  -----------------------------------------------
    Atom  No    Charge         Core      Valence    Rydberg      Total
 -----------------------------------------------------------------------
      N    1   -0.79147      1.99938     5.76725    0.02484     7.79147
      H    2    0.29509      0.00000     0.69861    0.00631     0.70491
      H    3    0.30545      0.00000     0.68782    0.00673     0.69455
      C    4   -0.11467      1.99896     4.09272    0.02299     6.11467
      C    5   -0.36690      1.99909     4.35091    0.01690     6.36690
      H    6    0.20195      0.00000     0.79132    0.00673     0.79805
      C    7   -0.48614      1.99900     4.47303    0.01411     6.48614
      H    8    0.18822      0.00000     0.80395    0.00782     0.81178
      C    9    0.72345      1.99939     3.23038    0.04678     5.27655
      O   10   -0.65161      1.99974     6.64243    0.00945     8.65161
      N   11   -0.74858      1.99925     5.73337    0.01597     7.74858
      H   12    0.34541      0.00000     0.64760    0.00699     0.65459
      H   13    0.34160      0.00000     0.65464    0.00376     0.65840
      O   14   -0.79441      1.99974     6.78483    0.00985     8.79441
      C   15    0.77195      1.99941     3.15515    0.07349     5.22805
      O   16   -0.78989      1.99977     6.78178    0.00834     8.78989
      H   17    0.20739      0.00000     0.78482    0.00778     0.79261
      H   18    0.15686      0.00000     0.83501    0.00813     0.84314
      H   19    0.20632      0.00000     0.78952    0.00416     0.79368
 =======================================================================
   * Total *   -1.00000     19.99373    57.70515    0.30112    78.00000

 ******   13 imaginary frequencies (negative Signs) ******

                      1                      2                      3
                      A                      A                      A
 Frequencies --  -1733.2637             -1718.8843             -1557.3438
 Red. masses --      1.1455                 1.0410                 1.0124
 Frc consts  --      2.0276                 1.8122                 1.4467
 IR Inten    --    212.1482                42.8055                 2.9664

                      4                      5                      6
                      A                      A                      A
 Frequencies --  -1479.2987             -1327.0637             -1161.5831
 Red. masses --      1.1511                 1.0425                 1.0492
 Frc consts  --      1.4841                 1.0817                 0.8341
 IR Inten    --    151.6597                 2.7709                 1.5028

                      7                      8                      9
                      A                      A                      A
 Frequencies --   -968.1916              -882.7772              -415.8237
 Red. masses --      1.0480                 1.0553                 1.4630
 Frc consts  --      0.5788                 0.4845                 0.1490
 IR Inten    --      2.3097                 1.3604                 0.3894

                     10                     11                     12
                      A                      A                      A
 Frequencies --   -278.9182              -184.5544              -137.3101
 Red. masses --      1.8297                 2.4807                 4.1253
 Frc consts  --      0.0839                 0.0498                 0.0458
 IR Inten    --      1.6054                 1.2701                 1.0323

                     13                     14                     15
                      A                      A                      A
 Frequencies --    -75.3128                79.5248               207.8872
 Red. masses --      2.0426                 6.8139                 6.3335
 Frc consts  --      0.0068                 0.0254                 0.1613
 IR Inten    --     25.3747                 3.0174                 0.2248

                     16                     17                     18
                      A                      A                      A
 Frequencies --    248.3256               255.0879               354.0920
 Red. masses --      3.7843                 2.3145                 3.5338
 Frc consts  --      0.1375                 0.0887                 0.2610
 IR Inten    --      8.3472                 1.3830                 3.9970

                     19                     20                     21
                      A                      A                      A
 Frequencies --    479.6339               570.8839               582.5478
 Red. masses --      5.4524                 1.1830                 2.8010
 Frc consts  --      0.7390                 0.2272                 0.5600
 IR Inten    --      3.9076                55.2052                 6.6640

                     22                     23                     24
                      A                      A                      A
 Frequencies --    622.7255               679.8403               712.6237
 Red. masses --      1.7999                 4.1118                 2.8424
 Frc consts  --      0.4112                 1.1197                 0.8505
 IR Inten    --      2.3839                37.2053                15.3030

                     25                     26                     27
                      A                      A                      A
 Frequencies --    814.5082               833.5815               882.8979
 Red. masses --      3.5688                 2.8725                 1.9507
 Frc consts  --      1.3950                 1.1760                 0.8959
 IR Inten    --     24.0729                 8.7501                10.4826

                     28                     29                     30
                      A                      A                      A
 Frequencies --    906.8967               930.0140               939.9153
 Red. masses --      2.6277                 1.9597                 3.5125
 Frc consts  --      1.2733                 0.9987                 1.8283
 IR Inten    --      0.6802                 0.8074                 4.0041

                     31                     32                     33
                      A                      A                      A
 Frequencies --    950.0437              1001.7868              1050.1652
 Red. masses --      1.9811                 2.7967                 1.7985
 Frc consts  --      1.0535                 1.6537                 1.1686
 IR Inten    --      2.5664                 2.4681                 5.4357

                     34                     35                     36
                      A                      A                      A
 Frequencies --   1057.7602              1093.4839              1124.7998
 Red. masses --      2.3671                 1.7575                 2.3932
 Frc consts  --      1.5604                 1.2381                 1.7839
 IR Inten    --     13.6848                12.2854                24.0291

                     37                     38                     39
                      A                      A                      A
 Frequencies --   1151.4937              1185.6740              1396.5784
 Red. masses --      1.9837                 5.6718                11.6717
 Frc consts  --      1.5497                 4.6979                13.4126
 IR Inten    --      5.7667                11.9169               274.9397

                     40                     41                     42
                      A                      A                      A
 Frequencies --   1476.9994              1727.0912              1777.9886
 Red. masses --     10.5942                12.5249                11.6077
 Frc consts  --     13.6169                22.0117                21.6199
 IR Inten    --    245.6780               404.9681               293.8245

                     43                     44                     45
                      A                      A                      A
 Frequencies --   4099.9383              4186.7624              4202.5484
 Red. masses --      1.0866                 1.0600                 1.0603
 Frc consts  --     10.7615                10.9475                11.0328
 IR Inten    --     45.9592                15.2336                 3.3931

                     46                     47                     48
                      A                      A                      A
 Frequencies --   4297.6049              4317.8960              5289.6425
 Red. masses --      1.1073                 1.1083                 1.0557
 Frc consts  --     12.0499                12.1747                17.4031
 IR Inten    --      3.8364                 2.5819                 5.4117

                     49                     50                     51
                      A                      A                      A
 Frequencies --   5390.4771              5410.8032              5622.4407
 Red. masses --      1.0896                 1.0418                 1.1072
 Frc consts  --     18.6531                17.9700                20.6210
 IR Inten    --      3.0886                43.9702                48.4594

 - Thermochemistry -
 -------------------
 Temperature   298.150 Kelvin.  Pressure   1.00000 Atm.
 Atom     1 has atomic number  7 and mass  14.00307

 Molecular mass:   145.06132 amu.
 Principal axes and moments of inertia in atomic units:
                           1         2         3
     Eigenvalues --   606.254013142.901403371.79099
           X            0.99999   0.00178  -0.00393
           Y           -0.00189   0.99964  -0.02668
           Z            0.00388   0.02669   0.99964
 This molecule is an asymmetric top.
 Rotational symmetry number  1.
 Warning -- assumption of classical behavior for rotation
           may cause significant error
 Rotational temperatures (Kelvin)      0.14287     0.02756     0.02569
 Rotational constants (GHZ):           2.97687     0.57423     0.53525
   13 imaginary frequencies ignored.
 Zero-point vibrational energy     406209.7 (Joules/Mol)
                                   97.08646 (Kcal/Mol)
 Warning -- explicit consideration of   8 degrees of freedom as
           vibrations may cause significant error
 Vibrational temperatures:    114.42   299.10   357.29   367.01   509.46
          (Kelvin)            690.09   821.37   838.16   895.96   978.14
                             1025.31  1171.90  1199.34  1270.29  1304.82
                             1338.08  1352.33  1366.90  1441.35  1510.95
                             1521.88  1573.28  1618.34  1656.74  1705.92
                             2009.36  2125.07  2484.90  2558.13  5898.90
                             6023.82  6046.53  6183.29  6212.49  7610.62
                             7755.69  7784.94  8089.44

 Zero-point correction=                           0.154717 (Hartree/Particle)
 Thermal correction to Energy=                    0.161752
 Thermal correction to Enthalpy=                  0.162697
 Thermal correction to Gibbs Free Energy=         0.121899
 Sum of electronic and zero-point Energies=           -529.924081
 Sum of electronic and thermal Energies=              -529.917046
 Sum of electronic and thermal Enthalpies=            -529.916101
 Sum of electronic and thermal Free Energies=         -529.956899

                     E (Thermal)             CV                S
                      KCal/Mol        Cal/Mol-Kelvin    Cal/Mol-Kelvin
 Total                  101.501             26.804             85.865
 Electronic               0.000              0.000              0.000
 Translational            0.889              2.981             40.827
 Rotational               0.889              2.981             30.242
 Vibrational             99.724             20.842             14.796
 Vibration     1          0.600              1.963              3.903
 Vibration     2          0.641              1.829              2.062
 Vibration     3          0.662              1.766              1.742
 Vibration     4          0.665              1.754              1.695
 Vibration     5          0.730              1.567              1.148
 Vibration     6          0.836              1.295              0.711
 Vibration     7          0.927              1.094              0.503
 Vibration     8          0.939              1.069              0.481

 Normal termination of Gaussian 16 at Mon Mar  6 10:31:13 2023.
