 Gaussian 16, Revision C.01,
 Gaussian 16:  ES64L-G16RevC.01  3-Jul-2019

 ----------------------------------------------------------------------
 #p pop=(regular,nbo,savenbos) freq=noraman def2svp empiricaldispersion
 =gd3bj output=wfx pbe1pbe
 ----------------------------------------------------------------------

 ----------------------------------------
 YAFLEY_Complex_2_Ligand_0_ON_Cu_oriented
 ----------------------------------------
 Symbolic Z-matrix:
 Charge = -1 Multiplicity = 1

                         Standard orientation:
 ---------------------------------------------------------------------
 Center     Atomic      Atomic             Coordinates (Angstroms)
 Number     Number       Type             X           Y           Z
 ---------------------------------------------------------------------
      1         35           0        4.341023   -1.164102   -0.335961
      2          7           0       -1.021130    2.527254    1.540681
      3          1           0       -1.583695    2.805101    2.227544
      4          8           0        0.963838    3.626799    0.184009
      5          8           0       -0.255935    4.279028   -1.529715
      6          8           0       -2.570938   -1.287207    0.430403
      7          8           0       -2.694435   -0.357443   -1.624199
      8          6           0       -1.214453    1.041481    1.308699
      9          1           0       -1.500592    0.617896    2.168240
     10          6           0       -2.410800    1.037022    0.331866
     11          1           0       -3.241822    1.173342    0.872111
     12          6           0       -2.230581    2.279612   -0.562437
     13          1           0       -1.759621    2.045407   -1.401290
     14          1           0       -3.105618    2.682958   -0.787505
     15          6           0       -1.388037    3.236325    0.288962
     16          1           0       -1.953064    4.026771    0.528133
     17          6           0       -0.141220    3.737626   -0.433485
     18          6           0       -2.567794   -0.271728   -0.429956
     19          6           0       -2.660393   -2.695201   -0.066876
     20          6           0       -1.441237   -3.029580   -0.867476
     21          1           0       -0.639483   -2.853098   -0.332136
     22          1           0       -1.420861   -2.479238   -1.678044
     23          1           0       -1.464604   -3.977476   -1.117873
     24          6           0       -2.692319   -3.473494    1.220867
     25          1           0       -1.872355   -3.299392    1.728025
     26          1           0       -2.757380   -4.430839    1.021988
     27          1           0       -3.468625   -3.195883    1.750245
     28          6           0       -3.948470   -2.881656   -0.830113
     29          1           0       -3.887097   -2.417101   -1.690695
     30          1           0       -4.692384   -2.510670   -0.311979
     31          1           0       -4.102008   -3.837156   -0.984839
     32          6           0        0.076188    0.386148    0.847175
     33          6           0        0.468319    0.319556   -0.489377
     34          1           0       -0.117002    0.630053   -1.170447
     35          6           0        1.716319   -0.199980   -0.832411
     36          1           0        1.955393   -0.288070   -1.747390
     37          6           0        2.592761   -0.582091    0.129749
     38          6           0        2.193594   -0.587220    1.464580
     39          1           0        2.776272   -0.924571    2.134595
     40          6           0        0.951125   -0.100935    1.812801
     41          1           0        0.688381   -0.099957    2.725781
 ---------------------------------------------------------------------

 SCF Done:  E(RPBE1PBE) =  -3548.40476861     A.U. after   19 cycles

 The electronic state is 1-A.
 Alpha  occ. eigenvalues -- -483.09724 -62.53099 -56.32079 -56.31746 -56.31742
 Alpha  occ. eigenvalues --  -19.15872 -19.09757 -18.92906 -18.91667 -14.22823
 Alpha  occ. eigenvalues --  -10.25635 -10.21800 -10.18114 -10.14673 -10.13351
 Alpha  occ. eigenvalues --  -10.12854 -10.12484 -10.12314 -10.12092 -10.12048
 Alpha  occ. eigenvalues --  -10.11782 -10.11655 -10.11052 -10.09247 -10.08608
 Alpha  occ. eigenvalues --  -10.07633  -8.67709  -6.49147  -6.47922  -6.47914
 Alpha  occ. eigenvalues --   -2.57711  -2.57352  -2.57346  -2.56362  -2.56361
 Alpha  occ. eigenvalues --   -1.02592  -0.93702  -0.83174  -0.80871  -0.79126
 Alpha  occ. eigenvalues --   -0.77576  -0.72732  -0.72003  -0.68567  -0.67842
 Alpha  occ. eigenvalues --   -0.67011  -0.66703  -0.65938  -0.61967  -0.57387
 Alpha  occ. eigenvalues --   -0.55011  -0.53202  -0.50164  -0.48793  -0.46184
 Alpha  occ. eigenvalues --   -0.44227  -0.42695  -0.42064  -0.41535  -0.40322
 Alpha  occ. eigenvalues --   -0.39835  -0.39034  -0.38311  -0.37452  -0.36458
 Alpha  occ. eigenvalues --   -0.35526  -0.35412  -0.35099  -0.33659  -0.33141
 Alpha  occ. eigenvalues --   -0.32001  -0.31308  -0.29979  -0.29078  -0.29009
 Alpha  occ. eigenvalues --   -0.28617  -0.27784  -0.27140  -0.25895  -0.24840
 Alpha  occ. eigenvalues --   -0.24190  -0.24029  -0.22559  -0.22097  -0.21900
 Alpha  occ. eigenvalues --   -0.20623  -0.18630  -0.18514  -0.17318  -0.16484
 Alpha  occ. eigenvalues --   -0.14499  -0.10408  -0.03939  -0.03673  -0.01215
 Alpha virt. eigenvalues --    0.09361   0.09718   0.11780   0.12284   0.14481
 Alpha virt. eigenvalues --    0.17289   0.18530   0.19798   0.21012   0.21682
 Alpha virt. eigenvalues --    0.22495   0.23095   0.23484   0.24007   0.24460

 Mulliken charges:
               1
     1  Br  -0.090690
     2  N   -0.147712
     3  H    0.046863
     4  O   -0.442832
     5  O   -0.414473
     6  O   -0.354110
     7  O   -0.261767
     8  C    0.098814
     9  H   -0.046323
    10  C   -0.156297
    11  H   -0.018077
    12  C    0.260955
    13  H   -0.016510
    14  H   -0.043710
    15  C   -0.063863
    16  H   -0.040646
    17  C    0.125044
    18  C    0.272517
    19  C   -0.250365
    20  C    0.227171
    21  H    0.002498
    22  H    0.002000
    23  H   -0.029600
    24  C    0.207525
    25  H   -0.007993
    26  H   -0.027716
    27  H   -0.021180
    28  C    0.212637
    29  H    0.004212
    30  H   -0.020092
    31  H   -0.028923
    32  C    0.051080
    33  C    0.126910
    34  H   -0.093851
    35  C    0.091944
    36  H   -0.098866
    37  C   -0.020130
    38  C    0.089718
    39  H   -0.105886
    40  C    0.092283
    41  H   -0.110561
 Sum of Mulliken charges =  -1.00000

 Dipole moment (field-independent basis, Debye):
    X=             -4.5920    Y=            -15.9673    Z=              4.6010  Tot=             17.2398
 Quadrupole moment (field-independent basis, Debye-Ang):
   XX=           -156.2283   YY=           -205.9237   ZZ=           -149.1669
   XY=             -7.6837   XZ=             -7.8508   YZ=             14.3344

  Exact polarizability:     213.906     -18.756     179.874      -2.822      -3.578     162.169
 Approx polarizability:     292.466     -33.194     230.672       0.150      -8.847     284.383

 Summary of Natural Population Analysis:

                                       Natural Population
                Natural  -----------------------------------------------
    Atom  No    Charge         Core      Valence    Rydberg      Total
 -----------------------------------------------------------------------
     Br    1    0.01196     27.99919     6.97046    0.01839    34.98804
      N    2   -0.65694      1.99939     5.63843    0.01912     7.65694
      H    3    0.32899      0.00000     0.66471    0.00629     0.67101
      O    4   -0.78012      1.99977     6.77151    0.00885     8.78012
      O    5   -0.78581      1.99973     6.77571    0.01037     8.78581
      O    6   -0.60910      1.99963     6.59721    0.01226     8.60910
      O    7   -0.63877      1.99970     6.62914    0.00993     8.63877
      C    8   -0.01682      1.99895     3.99411    0.02376     6.01682
      H    9    0.19661      0.00000     0.79923    0.00416     0.80339
      C   10   -0.32598      1.99895     4.30807    0.01896     6.32598
      H   11    0.21925      0.00000     0.77560    0.00516     0.78075
      C   12   -0.38609      1.99914     4.36728    0.01967     6.38609
      H   13    0.20926      0.00000     0.78448    0.00627     0.79074
      H   14    0.19463      0.00000     0.80210    0.00327     0.80537
      C   15   -0.12119      1.99898     4.09754    0.02467     6.12119
      H   16    0.18738      0.00000     0.80797    0.00465     0.81262
      C   17    0.77114      1.99941     3.15443    0.07503     5.22886
      C   18    0.87453      1.99928     3.06573    0.06045     5.12547
      C   19    0.32869      1.99903     3.64968    0.02261     5.67131
      C   20   -0.59443      1.99908     4.58441    0.01094     6.59443
      H   21    0.20824      0.00000     0.78852    0.00325     0.79176
      H   22    0.21709      0.00000     0.77939    0.00353     0.78291
      H   23    0.19350      0.00000     0.80392    0.00258     0.80650
      C   24   -0.57622      1.99909     4.56533    0.01180     6.57622
      H   25    0.20249      0.00000     0.79419    0.00332     0.79751
      H   26    0.19059      0.00000     0.80692    0.00249     0.80941
      H   27    0.19603      0.00000     0.80064    0.00334     0.80397
      C   28   -0.59389      1.99910     4.58385    0.01095     6.59389
      H   29    0.21830      0.00000     0.77797    0.00373     0.78170
      H   30    0.19695      0.00000     0.79992    0.00314     0.80305
      H   31    0.19161      0.00000     0.80573    0.00266     0.80839
      C   32   -0.01640      1.99901     3.99446    0.02294     6.01640
      C   33   -0.14043      1.99897     4.12504    0.01642     6.14043
      H   34    0.19453      0.00000     0.80143    0.00404     0.80547
      C   35   -0.18444      1.99885     4.16874    0.01685     6.18444
      H   36    0.19123      0.00000     0.80550    0.00327     0.80877
      C   37   -0.10787      1.99869     4.08708    0.02210     6.10787
      C   38   -0.19400      1.99892     4.17879    0.01630     6.19400
      H   39    0.18377      0.00000     0.81293    0.00330     0.81623
      C   40   -0.15628      1.99897     4.14158    0.01572     6.15628
      H   41    0.17804      0.00000     0.81863    0.00332     0.82196
 =======================================================================
   * Total *   -1.00000     69.98183   119.47834    0.53983   190.00000

 ******   25 imaginary frequencies (negative Signs) ******

                      1                      2                      3
                      A                      A                      A
 Frequencies --  -1238.7011             -1230.2885             -1220.0569
 Red. masses --      1.0663                 1.0083                 1.0093
 Frc consts  --      0.9639                 0.8992                 0.8852
 IR Inten    --     50.5101                 0.1870                 0.0391

                      4                      5                      6
                      A                      A                      A
 Frequencies --  -1216.5899             -1193.8815             -1074.0181
 Red. masses --      1.0092                 1.0414                 1.0984
 Frc consts  --      0.8801                 0.8745                 0.7465
 IR Inten    --      0.1942                 5.3780                99.6043

                      7                      8                      9
                      A                      A                      A
 Frequencies --  -1049.1476             -1028.0239              -860.9678
 Red. masses --      1.0161                 1.0331                 1.0417
 Frc consts  --      0.6590                 0.6433                 0.4549
 IR Inten    --      0.2383                 1.4535                 2.1227

                     10                     11                     12
                      A                      A                      A
 Frequencies --   -835.9707              -816.6825              -810.4069
 Red. masses --      1.1091                 1.0606                 1.0670
 Frc consts  --      0.4567                 0.4168                 0.4129
 IR Inten    --      6.3365                 1.5103                 4.7024

                     13                     14                     15
                      A                      A                      A
 Frequencies --   -780.4860              -757.2031              -753.8062
 Red. masses --      1.0221                 1.0569                 1.0516
 Frc consts  --      0.3668                 0.3570                 0.3520
 IR Inten    --      0.1124                 1.8484                 1.4555

                     16                     17                     18
                      A                      A                      A
 Frequencies --   -624.6817              -592.1815              -556.5746
 Red. masses --      1.1952                 1.1997                 1.1229
 Frc consts  --      0.2748                 0.2479                 0.2049
 IR Inten    --      2.9342                 4.1109                 8.4052

                     19                     20                     21
                      A                      A                      A
 Frequencies --   -354.4440              -299.5774              -231.9281
 Red. masses --      1.5165                 1.0762                 2.4774
 Frc consts  --      0.1123                 0.0569                 0.0785
 IR Inten    --      4.4741                 7.8202                11.1264

                     22                     23                     24
                      A                      A                      A
 Frequencies --   -203.7555              -167.8222              -117.4894
 Red. masses --      2.1251                 3.6910                10.2456
 Frc consts  --      0.0520                 0.0612                 0.0833
 IR Inten    --      0.8330                 7.5961                 0.7077

                     25                     26                     27
                      A                      A                      A
 Frequencies --   -107.9461                62.3931                69.9531
 Red. masses --      4.8146                 6.3566                 7.4670
 Frc consts  --      0.0331                 0.0146                 0.0215
 IR Inten    --      1.5151                 2.9554                 1.5276

                     28                     29                     30
                      A                      A                      A
 Frequencies --    118.0999               168.8028               175.2396
 Red. masses --      7.7739                 6.0582                 6.0681
 Frc consts  --      0.0639                 0.1017                 0.1098
 IR Inten    --      2.0399                 3.7825                 0.4669

                     31                     32                     33
                      A                      A                      A
 Frequencies --    191.3787               220.1832               244.6916
 Red. masses --      8.3861                 3.9818                 4.8219
 Frc consts  --      0.1810                 0.1137                 0.1701
 IR Inten    --      0.2663                 4.6318                 2.3274

                     34                     35                     36
                      A                      A                      A
 Frequencies --    265.4961               275.6308               309.9960
 Red. masses --      6.4400                 3.7343                 4.1304
 Frc consts  --      0.2675                 0.1672                 0.2339
 IR Inten    --      3.2040                 1.0242                 6.2201

                     37                     38                     39
                      A                      A                      A
 Frequencies --    315.6402               330.7412               378.8176
 Red. masses --      3.4938                 5.2186                 2.6752
 Frc consts  --      0.2051                 0.3363                 0.2262
 IR Inten    --     10.2131                 0.6543                 6.8592

                     40                     41                     42
                      A                      A                      A
 Frequencies --    436.5652               466.3397               489.6264
 Red. masses --      2.6189                 3.5134                 3.1824
 Frc consts  --      0.2941                 0.4502                 0.4495
 IR Inten    --      3.5894                10.3979                 1.9876

                     43                     44                     45
                      A                      A                      A
 Frequencies --    502.8020               525.5761               532.1127
 Red. masses --      4.3538                 2.6697                 8.7929
 Frc consts  --      0.6485                 0.4345                 1.4669
 IR Inten    --      7.6315                 6.0418                 2.2411

                     46                     47                     48
                      A                      A                      A
 Frequencies --    552.6158               563.3541               590.4661
 Red. masses --      5.4217                 4.4658                 4.2327
 Frc consts  --      0.9755                 0.8351                 0.8695
 IR Inten    --      0.5591                 0.0694                 7.8904

                     49                     50                     51
                      A                      A                      A
 Frequencies --    603.3885               648.5006               683.0154
 Red. masses --      3.0363                 2.9588                 2.2041
 Frc consts  --      0.6513                 0.7331                 0.6058
 IR Inten    --      8.7993                 5.1151                26.5265

                     52                     53                     54
                      A                      A                      A
 Frequencies --    688.2613               707.8196               717.1790
 Red. masses --      2.2867                 3.0627                 5.3646
 Frc consts  --      0.6382                 0.9041                 1.6257
 IR Inten    --     13.8390                10.8183                 1.3860

                     55                     56                     57
                      A                      A                      A
 Frequencies --    729.1805               743.2698               752.2811
 Red. masses --      2.8456                 1.5058                 1.2811
 Frc consts  --      0.8914                 0.4901                 0.4272
 IR Inten    --      0.9416                17.7121                21.1742

                     58                     59                     60
                      A                      A                      A
 Frequencies --    762.8760               772.1617               806.1769
 Red. masses --      2.8527                 1.3300                 5.9042
 Frc consts  --      0.9782                 0.4672                 2.2608
 IR Inten    --      4.8308                15.2675                 3.7484

                     61                     62                     63
                      A                      A                      A
 Frequencies --    819.3251               831.2689               853.7007
 Red. masses --      3.3972                 2.5803                 2.4886
 Frc consts  --      1.3436                 1.0505                 1.0686
 IR Inten    --      1.7047                 4.3946                 8.4486

                     64                     65                     66
                      A                      A                      A
 Frequencies --    862.6161               869.8982               888.7165
 Red. masses --      3.4097                 5.0755                 2.4833
 Frc consts  --      1.4948                 2.2629                 1.1556
 IR Inten    --     34.3472                14.9940                11.3297

                     67                     68                     69
                      A                      A                      A
 Frequencies --    903.5615               919.8136               924.7004
 Red. masses --      2.8206                 2.3738                 3.6415
 Frc consts  --      1.3568                 1.1833                 1.8346
 IR Inten    --      2.6283                17.5431                 3.1309

                     70                     71                     72
                      A                      A                      A
 Frequencies --    958.5287              1004.9925              1023.1859
 Red. masses --      3.0080                 3.2143                 2.6150
 Frc consts  --      1.6283                 1.9128                 1.6130
 IR Inten    --      4.7782                 4.5934               234.4784

                     73                     74                     75
                      A                      A                      A
 Frequencies --   1041.8402              1062.5374              1079.4917
 Red. masses --      5.4018                 4.3081                 1.0358
 Frc consts  --      3.4545                 2.8657                 0.7111
 IR Inten    --     74.1908                 6.6203                 6.2994

                     76                     77                     78
                      A                      A                      A
 Frequencies --   1088.6255              1094.3155              1096.0983
 Red. masses --      1.1917                 2.8257                 1.2008
 Frc consts  --      0.8321                 1.9937                 0.8500
 IR Inten    --     27.3881                 3.3568                16.8320

                     79                     80                     81
                      A                      A                      A
 Frequencies --   1110.0978              1125.7185              1126.8085
 Red. masses --      4.1544                 1.9313                 1.5097
 Frc consts  --      3.0163                 1.4420                 1.1294
 IR Inten    --     10.9442                 6.7013                 5.1291

                     82                     83                     84
                      A                      A                      A
 Frequencies --   1134.8872              1139.0521              1159.0933
 Red. masses --      1.0663                 2.6197                 6.9637
 Frc consts  --      0.8091                 2.0026                 5.5122
 IR Inten    --      2.0779                31.7015                23.5868

                     85                     86                     87
                      A                      A                      A
 Frequencies --   1181.6635              1229.4019              1250.8091
 Red. masses --      1.8426                 1.4462                 6.5686
 Frc consts  --      1.5159                 1.2878                 6.0548
 IR Inten    --      7.0015                53.0375                33.5929

                     88                     89                     90
                      A                      A                      A
 Frequencies --   1338.7019              1350.0504              1365.6445
 Red. masses --      9.2012                 4.3943                 4.8483
 Frc consts  --      9.7155                 4.7189                 5.3274
 IR Inten    --    376.6374                12.5010                19.3336

                     91                     92                     93
                      A                      A                      A
 Frequencies --   1380.3139              1421.9474              1450.4459
 Red. masses --      9.0651                 8.2648                12.4370
 Frc consts  --     10.1760                 9.8458                15.4159
 IR Inten    --      1.5001                17.1872               174.1517

                     94                     95                     96
                      A                      A                      A
 Frequencies --   1477.3115              1638.7989              1710.0472
 Red. masses --      8.9406                10.8992                10.2465
 Frc consts  --     11.4964                17.2463                17.6539
 IR Inten    --     15.0144                 5.6318                 7.4575

                     97                     98                     99
                      A                      A                      A
 Frequencies --   1811.5098              1868.0917              4116.3929
 Red. masses --     12.9042                12.7664                 1.0875
 Frc consts  --     24.9495                26.2491                10.8572
 IR Inten    --    435.2623               232.2158                25.0575

                    100                    101                    102
                      A                      A                      A
 Frequencies --   4119.5501              4133.1908              4192.9167
 Red. masses --      1.0868                 1.0879                 1.0594
 Frc consts  --     10.8666                10.9501                10.9738
 IR Inten    --      2.4196                16.6060                 9.7667

                    103                    104                    105
                      A                      A                      A
 Frequencies --   4235.7862              4238.3791              4240.9601
 Red. masses --      1.0332                 1.0327                 1.0332
 Frc consts  --     10.9216                10.9299                10.9486
 IR Inten    --      4.8377                 4.2489                17.3351

                    106                    107                    108
                      A                      A                      A
 Frequencies --   4310.4741              4421.6446              4427.3812
 Red. masses --      1.1105                 1.1062                 1.1065
 Frc consts  --     12.1571                12.7422                12.7789
 IR Inten    --      9.6037                 3.4247                 0.9761

                    109                    110                    111
                      A                      A                      A
 Frequencies --   4430.4351              4432.8500              4433.5092
 Red. masses --      1.1062                 1.1069                 1.1068
 Frc consts  --     12.7936                12.8157                12.8176
 IR Inten    --     11.3077                 3.1967                 1.3767

                    112                    113                    114
                      A                      A                      A
 Frequencies --   4435.7124              4698.1963              4763.3241
 Red. masses --      1.1066                 1.0762                 1.0876
 Frc consts  --     12.8288                13.9956                14.5389
 IR Inten    --      1.7430                 2.7683                 0.5343

                    115                    116                    117
                      A                      A                      A
 Frequencies --   4768.6861              4775.5333              4778.0184
 Red. masses --      1.0881                 1.0914                 1.0914
 Frc consts  --     14.5784                14.6649                14.6803
 IR Inten    --      0.6984                 0.4989                 1.5599

 - Thermochemistry -
 -------------------
 Temperature   298.150 Kelvin.  Pressure   1.00000 Atm.
 Atom     1 has atomic number 35 and mass  78.91834

 Molecular mass:   368.04974 amu.
 Principal axes and moments of inertia in atomic units:
                           1         2         3
     Eigenvalues --  7195.23415********************
           X            0.99568   0.09259   0.00631
           Y           -0.09260   0.99570   0.00185
           Z           -0.00611  -0.00243   0.99998
 This molecule is an asymmetric top.
 Rotational symmetry number  1.
 Warning -- assumption of classical behavior for rotation
           may cause significant error
 Rotational temperatures (Kelvin)      0.01204     0.00807     0.00554
 Rotational constants (GHZ):           0.25082     0.16825     0.11552
   25 imaginary frequencies ignored.
 Zero-point vibrational energy     866976.7 (Joules/Mol)
                                  207.21240 (Kcal/Mol)
 Warning -- explicit consideration of  24 degrees of freedom as
           vibrations may cause significant error
 Vibrational temperatures:     89.77   100.65   169.92   242.87   252.13
          (Kelvin)            275.35   316.79   352.06   381.99   396.57
                              446.02   454.14   475.86   545.03   628.12
                              670.96   704.46   723.42   756.19   765.59
                              795.09   810.54   849.55   868.14   933.05
                              982.71   990.25  1018.39  1031.86  1049.13
                             1069.40  1082.36  1097.61  1110.97  1159.91
                             1178.83  1196.01  1228.28  1241.11  1251.59
                             1278.66  1300.02  1323.41  1330.44  1379.11
                             1445.96  1472.14  1498.98  1528.75  1553.15
                             1566.29  1574.48  1577.04  1597.18  1619.66
                             1621.23  1632.85  1638.84  1667.68  1700.15
                             1768.84  1799.64  1926.09  1942.42  1964.86
                             1985.96  2045.87  2086.87  2125.52  2357.87
                             2460.38  2606.36  2687.77  5922.57  5927.11
                             5946.74  6032.67  6094.35  6098.08  6101.80
                             6201.81  6361.76  6370.01  6374.41  6377.88
                             6378.83  6382.00  6759.66  6853.36  6861.08
                             6870.93  6874.50

 Zero-point correction=                           0.330214 (Hartree/Particle)
 Thermal correction to Energy=                    0.344866
 Thermal correction to Enthalpy=                  0.345810
 Thermal correction to Gibbs Free Energy=         0.288093
 Sum of electronic and zero-point Energies=          -3548.074555
 Sum of electronic and thermal Energies=             -3548.059903
 Sum of electronic and thermal Enthalpies=           -3548.058959
 Sum of electronic and thermal Free Energies=        -3548.116676

                     E (Thermal)             CV                S
                      KCal/Mol        Cal/Mol-Kelvin    Cal/Mol-Kelvin
 Total                  216.406             62.161            121.476
 Electronic               0.000              0.000              0.000
 Translational            0.889              2.981             43.602
 Rotational               0.889              2.981             35.443
 Vibrational            214.629             56.199             42.431
 Vibration     1          0.597              1.972              4.380
 Vibration     2          0.598              1.968              4.155
 Vibration     3          0.608              1.934              3.131
 Vibration     4          0.625              1.881              2.449
 Vibration     5          0.627              1.873              2.379
 Vibration     6          0.634              1.852              2.214
 Vibration     7          0.647              1.810              1.958
 Vibration     8          0.660              1.772              1.769
 Vibration     9          0.671              1.736              1.625
 Vibration    10          0.677              1.718              1.561
 Vibration    11          0.699              1.655              1.362
 Vibration    12          0.703              1.644              1.333
 Vibration    13          0.713              1.614              1.256
 Vibration    14          0.749              1.515              1.044
 Vibration    15          0.797              1.390              0.837
 Vibration    16          0.824              1.325              0.748
 Vibration    17          0.845              1.273              0.685
 Vibration    18          0.858              1.244              0.651
 Vibration    19          0.881              1.193              0.597
 Vibration    20          0.887              1.179              0.583
 Vibration    21          0.908              1.134              0.539
 Vibration    22          0.919              1.111              0.517
 Vibration    23          0.948              1.052              0.466
 Vibration    24          0.962              1.025              0.444

 Normal termination of Gaussian 16 at Mon Mar  6 12:09:54 2023.
