 Gaussian 16, Revision C.01,
 Gaussian 16:  ES64L-G16RevC.01  3-Jul-2019

 ----------------------------------------------------------------------
 #p pop=(regular,nbo,savenbos) freq=noraman def2svp empiricaldispersion
 =gd3bj output=wfx pbe1pbe
 ----------------------------------------------------------------------

 ----------------------------------------
 YASJIL_Complex_5_Ligand_0_OO_Cu_oriented
 ----------------------------------------
 Symbolic Z-matrix:
 Charge = -2 Multiplicity = 1

                         Standard orientation:
 ---------------------------------------------------------------------
 Center     Atomic      Atomic             Coordinates (Angstroms)
 Number     Number       Type             X           Y           Z
 ---------------------------------------------------------------------
      1          8           0        2.346817   -1.716224    1.139104
      2          6           0        1.669764   -1.925557   -0.101554
      3          1           0        1.219542   -2.926548   -0.046599
      4          1           0        2.991835   -1.323812    0.988009
      5          6           0        0.610063   -0.880274   -0.365886
      6          1           0        0.221579   -1.041028   -1.182313
      7          8           0        0.392786    2.873997   -0.370942
      8          6           0       -0.036416    1.540550   -0.508352
      9          6           0        1.123502    0.549938   -0.357606
     10          1           0       -0.371238    1.429192   -1.391158
     11          1           0        1.569567    0.729965    0.445956
     12          8           0        2.063848    0.685026   -1.426193
     13          1           0        2.527833    1.334724   -1.275262
     14          8           0       -0.510323    1.660187    1.828342
     15          8           0       -0.376706   -1.071423    0.665724
     16          6           0       -1.482649   -0.191942    0.570320
     17          6           0       -1.063319    1.261241    0.593937
     18          1           0       -1.987639   -0.443936    1.244127
     19          8           0       -2.209142   -0.377437   -0.622306
     20          6           0       -2.756940   -1.675923   -0.786206
     21          1           0       -3.234607   -2.064468   -0.103684
     22          1           0       -3.264647   -1.597071   -1.522469
     23          1           0        2.237988   -1.937547   -0.835063
     24          1           0       -2.106733   -2.421863   -0.640487
     25          1           0       -1.845751    1.761182    0.341205
 ---------------------------------------------------------------------

 SCF Done:  E(RPBE1PBE) =  -723.378875460     A.U. after   21 cycles

 The electronic state is 1-A.
 Alpha  occ. eigenvalues --  -18.93965 -18.93236 -18.90810 -18.88531 -18.68223
 Alpha  occ. eigenvalues --  -18.67701 -10.00581  -9.98965  -9.96706  -9.96300
 Alpha  occ. eigenvalues --   -9.91500  -9.84788  -9.84641  -0.83505  -0.79486
 Alpha  occ. eigenvalues --   -0.76033  -0.72685  -0.53911  -0.52890  -0.51108
 Alpha  occ. eigenvalues --   -0.47179  -0.43400  -0.39746  -0.34044  -0.32123
 Alpha  occ. eigenvalues --   -0.30456  -0.28049  -0.25859  -0.23070  -0.22167
 Alpha  occ. eigenvalues --   -0.21355  -0.19822  -0.17741  -0.15043  -0.14528
 Alpha  occ. eigenvalues --   -0.11785  -0.11396  -0.09901  -0.07701  -0.06183
 Alpha  occ. eigenvalues --   -0.04796  -0.02760  -0.02224  -0.00627   0.01460
 Alpha  occ. eigenvalues --    0.03695   0.06137   0.07863   0.19618   0.20323
 Alpha  occ. eigenvalues --    0.22280   0.22480
 Alpha virt. eigenvalues --    0.30402   0.32343   0.34432   0.36503   0.38245
 Alpha virt. eigenvalues --    0.38426   0.39577   0.40394   0.43179   0.45373
 Alpha virt. eigenvalues --    0.45488   0.47794   0.48156   0.50444   0.51490

 Mulliken charges:
               1
     1  O   -0.245380
     2  C    0.343683
     3  H   -0.062272
     4  H    0.030620
     5  C    0.268110
     6  H   -0.149225
     7  O   -0.729666
     8  C    0.285064
     9  C    0.225331
    10  H   -0.216718
    11  H   -0.169757
    12  O   -0.294529
    13  H    0.010875
    14  O   -0.730371
    15  O   -0.460019
    16  C    0.453008
    17  C    0.295444
    18  H   -0.244598
    19  O   -0.430608
    20  C    0.437726
    21  H   -0.131682
    22  H   -0.095654
    23  H   -0.101500
    24  H   -0.075480
    25  H   -0.212402
 Sum of Mulliken charges =  -2.00000

 Dipole moment (field-independent basis, Debye):
    X=              0.6373    Y=            -13.5293    Z=             -4.7347  Tot=             14.3480
 Quadrupole moment (field-independent basis, Debye-Ang):
   XX=            -86.2958   YY=           -126.8614   ZZ=           -103.0180
   XY=              3.8412   XZ=              2.8847   YZ=             -2.3763

  Exact polarizability:     111.159       3.495     117.834      -1.092       1.120      80.654
 Approx polarizability:     137.233       2.959     167.455       2.455       2.929     119.520

 Summary of Natural Population Analysis:

                                       Natural Population
                Natural  -----------------------------------------------
    Atom  No    Charge         Core      Valence    Rydberg      Total
 -----------------------------------------------------------------------
      O    1   -0.69527      1.99963     6.67294    0.02271     8.69527
      C    2   -0.00996      1.99878     3.98809    0.02309     6.00996
      H    3    0.15071      0.00000     0.84113    0.00816     0.84929
      H    4    0.38840      0.00000     0.60288    0.00872     0.61160
      C    5    0.13646      1.99866     3.83834    0.02654     5.86354
      H    6    0.11801      0.00000     0.86932    0.01267     0.88199
      O    7   -0.98779      1.99987     6.97964    0.00828     8.98779
      C    8    0.11385      1.99881     3.84210    0.04524     5.88615
      C    9    0.12011      1.99869     3.84258    0.03863     5.87989
      H   10    0.08817      0.00000     0.90034    0.01149     0.91183
      H   11    0.12651      0.00000     0.84709    0.02640     0.87349
      O   12   -0.77221      1.99968     6.75367    0.01886     8.77221
      H   13    0.39667      0.00000     0.57693    0.02640     0.60333
      O   14   -0.99652      1.99987     6.98824    0.00841     8.99652
      O   15   -0.64906      1.99974     6.63770    0.01162     8.64906
      C   16    0.51076      1.99859     3.45392    0.03672     5.48924
      C   17    0.08804      1.99883     3.87013    0.04299     5.91196
      H   18    0.05599      0.00000     0.92554    0.01846     0.94401
      O   19   -0.62204      1.99974     6.60971    0.01260     8.62204
      C   20   -0.17726      1.99872     4.16510    0.01343     6.17726
      H   21    0.12229      0.00000     0.86957    0.00814     0.87771
      H   22    0.12521      0.00000     0.87130    0.00349     0.87479
      H   23    0.12130      0.00000     0.87177    0.00693     0.87870
      H   24    0.15567      0.00000     0.83493    0.00941     0.84433
      H   25    0.09197      0.00000     0.89310    0.01493     0.90803
 =======================================================================
   * Total *   -2.00000     25.98960    77.54606    0.46434   104.00000

 ******   20 imaginary frequencies (negative Signs) ******

                      1                      2                      3
                      A                      A                      A
 Frequencies --  -2789.9329             -2361.4200             -2203.6512
 Red. masses --      1.0681                 1.0770                 1.0675
 Frc consts  --      4.8984                 3.5385                 3.0541
 IR Inten    --    161.1422               106.3320               110.9233

                      4                      5                      6
                      A                      A                      A
 Frequencies --  -1808.6226             -1734.6651             -1642.7976
 Red. masses --      1.0257                 1.0840                 1.0804
 Frc consts  --      1.9768                 1.9219                 1.7180
 IR Inten    --      3.5671               147.8406                 4.3693

                      7                      8                      9
                      A                      A                      A
 Frequencies --  -1422.4812             -1359.6967             -1341.7498
 Red. masses --      1.1412                 1.0873                 1.0687
 Frc consts  --      1.3606                 1.1844                 1.1336
 IR Inten    --     50.8521                 0.3723                11.2877

                     10                     11                     12
                      A                      A                      A
 Frequencies --  -1222.1580             -1138.6959             -1064.0551
 Red. masses --      1.0548                 1.0768                 1.1136
 Frc consts  --      0.9283                 0.8226                 0.7428
 IR Inten    --      7.0239                 3.1205                 6.8996

                     13                     14                     15
                      A                      A                      A
 Frequencies --  -1004.7655              -909.0240              -858.9485
 Red. masses --      1.0967                 1.1175                 1.1406
 Frc consts  --      0.6523                 0.5441                 0.4958
 IR Inten    --      7.1268                16.7206                12.3373

                     16                     17                     18
                      A                      A                      A
 Frequencies --   -759.1475              -749.7772              -705.7587
 Red. masses --      1.1789                 1.1958                 1.2352
 Frc consts  --      0.4003                 0.3961                 0.3625
 IR Inten    --     14.1842                 4.7381                 9.1459

                     19                     20                     21
                      A                      A                      A
 Frequencies --   -664.6334              -589.5568               137.8352
 Red. masses --      1.1952                 1.2963                 3.8078
 Frc consts  --      0.3111                 0.2655                 0.0426
 IR Inten    --      8.6547                16.3556                 1.7497

                     22                     23                     24
                      A                      A                      A
 Frequencies --    212.7302               271.0559               283.5193
 Red. masses --      4.1269                 7.8805                 7.5088
 Frc consts  --      0.1100                 0.3411                 0.3556
 IR Inten    --      0.4109                 3.9084                 4.4393

                     25                     26                     27
                      A                      A                      A
 Frequencies --    313.6241               335.2203               391.7693
 Red. masses --      4.7556                 5.7205                 8.0726
 Frc consts  --      0.2756                 0.3787                 0.7300
 IR Inten    --      7.3135                 7.2914                13.7357

                     28                     29                     30
                      A                      A                      A
 Frequencies --    421.1648               453.7051               463.0615
 Red. masses --      6.8882                 5.1478                 7.9012
 Frc consts  --      0.7199                 0.6243                 0.9982
 IR Inten    --     12.8347                 3.7832                13.6570

                     31                     32                     33
                      A                      A                      A
 Frequencies --    515.4496               554.7197               573.7919
 Red. masses --      5.8108                 6.1438                 6.7297
 Frc consts  --      0.9096                 1.1139                 1.3054
 IR Inten    --      3.1004                16.8871                 7.6105

                     34                     35                     36
                      A                      A                      A
 Frequencies --    589.2479               665.0852               717.4854
 Red. masses --      5.2997                 4.2701                 4.1402
 Frc consts  --      1.0842                 1.1129                 1.2557
 IR Inten    --      6.3999                 5.1955                25.2550

                     37                     38                     39
                      A                      A                      A
 Frequencies --    748.2930               766.7974               819.7033
 Red. masses --      7.3308                 4.2577                 4.8475
 Frc consts  --      2.4185                 1.4750                 1.9190
 IR Inten    --     29.1566                 8.2381                31.1955

                     40                     41                     42
                      A                      A                      A
 Frequencies --    846.7350               887.5763               999.0969
 Red. masses --      2.6638                 6.0272                 5.8245
 Frc consts  --      1.1252                 2.7975                 3.4255
 IR Inten    --     25.1725                28.7789                44.3383

                     43                     44                     45
                      A                      A                      A
 Frequencies --   1005.5248              1021.5385              1035.2412
 Red. masses --      5.4366                 6.1909                 5.7710
 Frc consts  --      3.2387                 3.8064                 3.6441
 IR Inten    --      3.1600                74.4695                18.1960

                     46                     47                     48
                      A                      A                      A
 Frequencies --   1054.2339              1074.3868              1115.7055
 Red. masses --      6.3801                 6.1486                 4.8723
 Frc consts  --      4.1779                 4.1817                 3.5734
 IR Inten    --    100.0571                25.4350                43.0443

                     49                     50                     51
                      A                      A                      A
 Frequencies --   1126.4048              1148.0226              1171.7035
 Red. masses --      6.0948                 4.2065                 4.0979
 Frc consts  --      4.5561                 3.2665                 3.3147
 IR Inten    --      8.3323               151.1822                70.5095

                     52                     53                     54
                      A                      A                      A
 Frequencies --   1189.4289              1196.6320              1231.0156
 Red. masses --      4.9048                 6.1520                 7.0475
 Frc consts  --      4.0883                 5.1902                 6.2923
 IR Inten    --     44.1267                37.4917                16.1319

                     55                     56                     57
                      A                      A                      A
 Frequencies --   1248.2509              1295.9610              1361.9009
 Red. masses --      1.1770                 1.7039                 1.1271
 Frc consts  --      1.0805                 1.6861                 1.2317
 IR Inten    --     30.1515                 4.0478                 8.6887

                     58                     59                     60
                      A                      A                      A
 Frequencies --   3084.2457              4070.0073              4506.8827
 Red. masses --      1.0769                 1.0684                 1.0849
 Frc consts  --      6.0355                10.4274                12.9834
 IR Inten    --    204.6837                53.2496               204.0400

                     61                     62                     63
                      A                      A                      A
 Frequencies --   4659.1409              4928.5855              5037.7263
 Red. masses --      1.0852                 1.0873                 1.0869
 Frc consts  --     13.8794                15.5610                16.2517
 IR Inten    --    178.5004                 6.5561                17.0391

                     64                     65                     66
                      A                      A                      A
 Frequencies --   5078.0402              5160.1751              5486.2240
 Red. masses --      1.0680                 1.0867                 1.0996
 Frc consts  --     16.2258                17.0484                19.4997
 IR Inten    --     79.9709                20.1221                13.6103

                     67                     68                     69
                      A                      A                      A
 Frequencies --   5750.1626              6459.7668              7455.9713
 Red. masses --      1.0876                 1.0668                 1.0672
 Frc consts  --     21.1877                26.2273                34.9541
 IR Inten    --     54.2046                30.7834                48.5600

 - Thermochemistry -
 -------------------
 Temperature   298.150 Kelvin.  Pressure   1.00000 Atm.
 Atom     1 has atomic number  8 and mass  15.99491

 Molecular mass:   192.06339 amu.
 Principal axes and moments of inertia in atomic units:
                           1         2         3
     Eigenvalues --  2073.605362290.292373254.29595
           X            0.99410   0.10818   0.00728
           Y           -0.10825   0.99407   0.01016
           Z           -0.00614  -0.01089   0.99992
 This molecule is an asymmetric top.
 Rotational symmetry number  1.
 Warning -- assumption of classical behavior for rotation
           may cause significant error
 Rotational temperatures (Kelvin)      0.04177     0.03782     0.02662
 Rotational constants (GHZ):           0.87034     0.78800     0.55457
   20 imaginary frequencies ignored.
 Zero-point vibrational energy     543825.6 (Joules/Mol)
                                  129.97745 (Kcal/Mol)
 Warning -- explicit consideration of  14 degrees of freedom as
           vibrations may cause significant error
 Vibrational temperatures:    198.31   306.07   389.99   407.92   451.24
          (Kelvin)            482.31   563.67   605.96   652.78   666.24
                              741.62   798.12   825.56   847.80   956.91
                             1032.30  1076.63  1103.25  1179.37  1218.26
                             1277.02  1437.48  1446.73  1469.77  1489.48
                             1516.81  1545.80  1605.25  1620.65  1651.75
                             1685.82  1711.32  1721.69  1771.16  1795.95
                             1864.60  1959.47  4437.54  5855.83  6484.40
                             6703.46  7091.14  7248.16  7306.17  7424.34
                             7893.45  8273.20  9294.16 10727.48

 Zero-point correction=                           0.207132 (Hartree/Particle)
 Thermal correction to Energy=                    0.215688
 Thermal correction to Enthalpy=                  0.216633
 Thermal correction to Gibbs Free Energy=         0.173203
 Sum of electronic and zero-point Energies=           -723.171743
 Sum of electronic and thermal Energies=              -723.163187
 Sum of electronic and thermal Enthalpies=            -723.162243
 Sum of electronic and thermal Free Energies=         -723.205672

                     E (Thermal)             CV                S
                      KCal/Mol        Cal/Mol-Kelvin    Cal/Mol-Kelvin
 Total                  135.347             35.429             91.405
 Electronic               0.000              0.000              0.000
 Translational            0.889              2.981             41.663
 Rotational               0.889              2.981             31.114
 Vibrational            133.569             29.467             18.628
 Vibration     1          0.614              1.916              2.834
 Vibration     2          0.644              1.822              2.020
 Vibration     3          0.675              1.727              1.589
 Vibration     4          0.682              1.704              1.512
 Vibration     5          0.701              1.648              1.343
 Vibration     6          0.716              1.605              1.235
 Vibration     7          0.759              1.488              0.993
 Vibration     8          0.784              1.424              0.888
 Vibration     9          0.812              1.353              0.785
 Vibration    10          0.821              1.332              0.757
 Vibration    11          0.870              1.216              0.621
 Vibration    12          0.910              1.129              0.534
 Vibration    13          0.930              1.088              0.497
 Vibration    14          0.947              1.055              0.469

 Normal termination of Gaussian 16 at Mon Mar  6 10:43:48 2023.
