 Gaussian 16, Revision C.01,
 Gaussian 16:  ES64L-G16RevC.01  3-Jul-2019

 ----------------------------------------------------------------------
 #p pop=(regular,nbo,savenbos) freq=noraman def2svp empiricaldispersion
 =gd3bj output=wfx pbe1pbe
 ----------------------------------------------------------------------

 ----------------------------------------
 YASJAD_Complex_3_Ligand_1_OO_Cu_oriented
 ----------------------------------------
 Symbolic Z-matrix:
 Charge = -2 Multiplicity = 1

                         Standard orientation:
 ---------------------------------------------------------------------
 Center     Atomic      Atomic             Coordinates (Angstroms)
 Number     Number       Type             X           Y           Z
 ---------------------------------------------------------------------
      1          8           0       -0.033115    1.343894   -1.897026
      2          8           0        0.033115   -1.343894   -1.897026
      3          6           0       -0.338920    0.685267   -0.688033
      4          6           0        0.338920   -0.685267   -0.688033
      5          6           0        0.033115    1.467550    0.557920
      6          6           0       -0.033115   -1.467550    0.557920
      7          6           0       -0.303861    0.692716    1.822950
      8          6           0        0.303861   -0.692716    1.822950
      9          1           0       -1.514770    0.561530   -0.562842
     10          1           0        1.514770   -0.561530   -0.562842
     11          1           0       -0.434456    2.349965    0.593689
     12          1           0        0.890115    1.595982    0.605612
     13          1           0       -0.890115   -1.595982    0.605612
     14          1           0       -0.081134    1.154822    2.501369
     15          1           0        0.081134   -1.154822    2.501369
     16          1           0       -1.425338    0.623642    1.881373
     17          1           0        1.425338   -0.623642    1.881373
     18          1           0        0.434456   -2.349965    0.593689
 ---------------------------------------------------------------------

 SCF Done:  E(RPBE1PBE) =  -383.887306413     A.U. after   18 cycles

 The electronic state is 1-A.
 Alpha  occ. eigenvalues --  -18.66984 -18.66983  -9.90378  -9.90366  -9.86162
 Alpha  occ. eigenvalues --   -9.86150  -9.84704  -9.84704  -0.54970  -0.49528
 Alpha  occ. eigenvalues --   -0.47596  -0.43330  -0.37819  -0.31344  -0.26174
 Alpha  occ. eigenvalues --   -0.21528  -0.17306  -0.15099  -0.12816  -0.09540
 Alpha  occ. eigenvalues --   -0.06710  -0.05075  -0.03762  -0.01793  -0.00929
 Alpha  occ. eigenvalues --    0.02915   0.07768   0.08748   0.21353   0.21379
 Alpha  occ. eigenvalues --    0.23221   0.23228
 Alpha virt. eigenvalues --    0.34342   0.36573   0.38766   0.42096   0.43281
 Alpha virt. eigenvalues --    0.44103   0.46045   0.47416   0.49083   0.49707
 Alpha virt. eigenvalues --    0.53671   0.55354   0.58478   0.61431   0.63231

 Mulliken charges:
               1
     1  O   -0.711045
     2  O   -0.711045
     3  C    0.160269
     4  C    0.160269
     5  C    0.303342
     6  C    0.303342
     7  C    0.085380
     8  C    0.085380
     9  H   -0.214818
    10  H   -0.214818
    11  H   -0.149129
    12  H   -0.207342
    13  H   -0.207342
    14  H   -0.197543
    15  H   -0.197543
    16  H   -0.069113
    17  H   -0.069113
    18  H   -0.149129
 Sum of Mulliken charges =  -2.00000

 Dipole moment (field-independent basis, Debye):
    X=              0.0000    Y=             -0.0000    Z=             11.2916  Tot=             11.2916
 Quadrupole moment (field-independent basis, Debye-Ang):
   XX=            -59.1352   YY=            -74.4583   ZZ=            -88.0711
   XY=              1.5796   XZ=              0.0000   YZ=              0.0000

  Exact polarizability:      79.770      -1.074      79.855       0.000       0.000      86.086
 Approx polarizability:     117.568       3.425     103.282       0.000      -0.000     134.043

 Summary of Natural Population Analysis:

                                       Natural Population
                Natural  -----------------------------------------------
    Atom  No    Charge         Core      Valence    Rydberg      Total
 -----------------------------------------------------------------------
      O    1   -0.96896      1.99985     6.96134    0.00778     8.96896
      O    2   -0.96896      1.99985     6.96134    0.00778     8.96896
      C    3    0.11126      1.99893     3.84230    0.04751     5.88874
      C    4    0.11126      1.99893     3.84230    0.04751     5.88874
      C    5   -0.37071      1.99875     4.34658    0.02537     6.37071
      C    6   -0.37071      1.99875     4.34658    0.02537     6.37071
      C    7   -0.33749      1.99876     4.32197    0.01676     6.33749
      C    8   -0.33749      1.99876     4.32197    0.01676     6.33749
      H    9    0.04648      0.00000     0.93760    0.01592     0.95352
      H   10    0.04648      0.00000     0.93760    0.01592     0.95352
      H   11    0.14478      0.00000     0.83887    0.01635     0.85522
      H   12    0.11450      0.00000     0.86902    0.01649     0.88550
      H   13    0.11450      0.00000     0.86902    0.01649     0.88550
      H   14    0.09969      0.00000     0.89509    0.00521     0.90031
      H   15    0.09969      0.00000     0.89509    0.00521     0.90031
      H   16    0.16046      0.00000     0.83162    0.00792     0.83954
      H   17    0.16046      0.00000     0.83162    0.00792     0.83954
      H   18    0.14478      0.00000     0.83887    0.01635     0.85522
 =======================================================================
   * Total *   -2.00000     15.99259    47.68878    0.31863    64.00000

 ******    9 imaginary frequencies (negative Signs) ******

                      1                      2                      3
                      B                      A                      A
 Frequencies --  -2055.8249             -2038.8286             -1991.1921
 Red. masses --      1.1047                 1.0779                 1.0779
 Frc consts  --      2.7509                 2.6399                 2.5180
 IR Inten    --      2.5275                 0.0233                 0.3687

                      4                      5                      6
                      B                      B                      A
 Frequencies --  -1914.1270             -1827.3712             -1809.3205
 Red. masses --      1.0878                 1.0457                 1.0725
 Frc consts  --      2.3482                 2.0574                 2.0687
 IR Inten    --      2.5795                 4.2218                 6.0294

                      7                      8                      9
                      A                      B                      B
 Frequencies --  -1760.0211             -1738.1341              -293.7832
 Red. masses --      1.0727                 1.0910                 1.7632
 Frc consts  --      1.9578                 1.9421                 0.0897
 IR Inten    --      0.0837                13.0577                 5.4081

                     10                     11                     12
                      A                      A                      A
 Frequencies --    199.3627               272.0717               408.1665
 Red. masses --      1.6547                 2.5165                 7.9319
 Frc consts  --      0.0387                 0.1098                 0.7786
 IR Inten    --      0.0314                 2.1497                 3.8244

                     13                     14                     15
                      B                      A                      B
 Frequencies --    448.0645               483.2234               527.8225
 Red. masses --      3.9215                 5.1436                 5.4990
 Frc consts  --      0.4639                 0.7076                 0.9026
 IR Inten    --      3.4773                17.2492                22.1777

                     16                     17                     18
                      B                      A                      B
 Frequencies --    561.5417               610.6785               627.7307
 Red. masses --      3.0729                 3.4642                 2.2676
 Frc consts  --      0.5709                 0.7612                 0.5264
 IR Inten    --     10.6338                 4.5077                22.4510

                     19                     20                     21
                      A                      B                      A
 Frequencies --    657.9296               730.2235               812.9038
 Red. masses --      4.3416                 1.7426                 1.2595
 Frc consts  --      1.1073                 0.5475                 0.4904
 IR Inten    --      4.0481                 1.5645                 1.1816

                     22                     23                     24
                      B                      A                      B
 Frequencies --    885.4186               950.3203              1003.5744
 Red. masses --      1.8801                 7.5892                 3.9621
 Frc consts  --      0.8684                 4.0382                 2.3511
 IR Inten    --     51.7739               235.9531                43.4574

                     25                     26                     27
                      A                      B                      A
 Frequencies --   1022.7930              1073.7418              1094.0707
 Red. masses --      5.1969                 4.7086                 2.4842
 Frc consts  --      3.2031                 3.1985                 1.7520
 IR Inten    --     15.6864                12.4864                 7.5810

                     28                     29                     30
                      A                      B                      A
 Frequencies --   1119.6110              1152.2376              1154.3589
 Red. masses --      2.5145                 2.8825                 2.0095
 Frc consts  --      1.8571                 2.2548                 1.5777
 IR Inten    --      5.3473                 3.6836                 0.0280

                     31                     32                     33
                      B                      B                      B
 Frequencies --   1227.2836              1248.9337              1265.2577
 Red. masses --      1.3036                 1.2879                 1.3339
 Frc consts  --      1.1569                 1.1836                 1.2582
 IR Inten    --     30.4078                38.8065                 3.1288

                     34                     35                     36
                      A                      A                      B
 Frequencies --   1281.6207              1302.7980              1309.0790
 Red. masses --      1.2811                 1.1832                 1.2112
 Frc consts  --      1.2398                 1.1832                 1.2229
 IR Inten    --      0.1352                74.3796                49.9468

                     37                     38                     39
                      A                      A                      A
 Frequencies --   1372.6874              1399.4926              2175.5977
 Red. masses --      2.0869                 1.4228                 1.0726
 Frc consts  --      2.3169                 1.6419                 2.9912
 IR Inten    --      0.1432                 0.9047                 5.7677

                     40                     41                     42
                      B                      A                      B
 Frequencies --   2175.9430              2834.7985              2848.3975
 Red. masses --      1.0824                 1.0706                 1.0727
 Frc consts  --      3.0195                 5.0689                 5.1276
 IR Inten    --   1256.2134                41.0419               201.5752

                     43                     44                     45
                      B                      A                      B
 Frequencies --   4094.1391              4095.9850              5919.8722
 Red. masses --      1.0784                 1.0783                 1.0866
 Frc consts  --     10.6504                10.6588                22.4368
 IR Inten    --    229.6567                 2.0117                27.7128

                     46                     47                     48
                      A                      B                      A
 Frequencies --   5920.2204              6195.2979              6200.7533
 Red. masses --      1.0865                 1.0861                 1.0869
 Frc consts  --     22.4366                24.5616                24.6219
 IR Inten    --      0.4626                13.6028                49.2051

 - Thermochemistry -
 -------------------
 Temperature   298.150 Kelvin.  Pressure   1.00000 Atm.
 Atom     1 has atomic number  8 and mass  15.99491

 Molecular mass:   114.06808 amu.
 Principal axes and moments of inertia in atomic units:
                           1         2         3
     Eigenvalues --   601.25506 889.375251387.97790
           X            0.00000  -0.09913   0.99507
           Y            0.00000   0.99507   0.09913
           Z            1.00000  -0.00000  -0.00000
 This molecule is an asymmetric top.
 Rotational symmetry number  2.
 Warning -- assumption of classical behavior for rotation
           may cause significant error
 Rotational temperatures (Kelvin)      0.14406     0.09739     0.06240
 Rotational constants (GHZ):           3.00162     2.02922     1.30027
    9 imaginary frequencies ignored.
 Zero-point vibrational energy     410701.9 (Joules/Mol)
                                   98.16012 (Kcal/Mol)
 Warning -- explicit consideration of   8 degrees of freedom as
           vibrations may cause significant error
 Vibrational temperatures:    286.84   391.45   587.26   644.66   695.25
          (Kelvin)            759.42   807.93   878.63   903.16   946.61
                             1050.63  1169.59  1273.92  1367.30  1443.92
                             1471.57  1544.88  1574.12  1610.87  1657.81
                             1660.87  1765.79  1796.94  1820.42  1843.97
                             1874.44  1883.47  1974.99  2013.56  3130.20
                             3130.70  4078.64  4098.21  5890.55  5893.21
                             8517.38  8517.88  8913.65  8921.50

 Zero-point correction=                           0.156428 (Hartree/Particle)
 Thermal correction to Energy=                    0.162456
 Thermal correction to Enthalpy=                  0.163400
 Thermal correction to Gibbs Free Energy=         0.126947
 Sum of electronic and zero-point Energies=           -383.730878
 Sum of electronic and thermal Energies=              -383.724851
 Sum of electronic and thermal Enthalpies=            -383.723907
 Sum of electronic and thermal Free Energies=         -383.760360

                     E (Thermal)             CV                S
                      KCal/Mol        Cal/Mol-Kelvin    Cal/Mol-Kelvin
 Total                  101.942             24.451             76.722
 Electronic               0.000              0.000              0.000
 Translational            0.889              2.981             40.110
 Rotational               0.889              2.981             26.720
 Vibrational            100.165             18.490              9.892
 Vibration     1          0.637              1.841              2.139
 Vibration     2          0.675              1.725              1.583
 Vibration     3          0.773              1.452              0.933
 Vibration     4          0.807              1.365              0.802
 Vibration     5          0.839              1.287              0.701
 Vibration     6          0.883              1.188              0.592
 Vibration     7          0.917              1.114              0.521
 Vibration     8          0.970              1.009              0.432

 Normal termination of Gaussian 16 at Mon Mar  6 10:27:03 2023.
