 Gaussian 16, Revision C.01,
 Gaussian 16:  ES64L-G16RevC.01  3-Jul-2019

 ----------------------------------------------------------------------
 #p pop=(regular,nbo,savenbos) freq=noraman def2svp empiricaldispersion
 =gd3bj output=wfx pbe1pbe
 ----------------------------------------------------------------------

 ----------------------------------------
 YEHJEB_Complex_8_Ligand_2_NN_Cu_oriented
 ----------------------------------------
 Symbolic Z-matrix:
 Charge =  0 Multiplicity = 1

                         Standard orientation:
 ---------------------------------------------------------------------
 Center     Atomic      Atomic             Coordinates (Angstroms)
 Number     Number       Type             X           Y           Z
 ---------------------------------------------------------------------
      1          7           0       -3.137415   -1.333965    0.119900
      2          7           0       -0.525917   -0.772589   -0.209596
      3          6           0       -2.777397   -0.076007    0.016651
      4          6           0       -1.367289    0.300532   -0.093284
      5          6           0       -0.906406    1.582843   -0.077967
      6          1           0       -1.517192    2.305408    0.005455
      7          6           0        0.445008    1.833218   -0.185665
      8          1           0        0.767630    2.724023   -0.171162
      9          6           0        1.311839    0.788255   -0.314082
     10          6           0        0.789774   -0.524183   -0.315237
     11          6           0        2.808459    0.920038   -0.449331
     12          1           0        3.169847    1.850540   -0.491256
     13          6           0        3.246367   -0.048664   -1.599713
     14          1           0        2.578364   -0.149806   -2.323985
     15          1           0        4.150318    0.133005   -1.962241
     16          6           0        3.202206   -1.163340   -0.538711
     17          1           0        3.896253   -1.875607   -0.644439
     18          6           0        1.756394   -1.674536   -0.422248
     19          1           0        1.533131   -2.220322   -1.218612
     20          1           0        1.674173   -2.251082    0.378041
     21          6           0        3.528453   -0.065486    0.533347
     22          6           0        5.012202    0.250882    0.653818
     23          1           0        5.349901    0.571159   -0.209114
     24          1           0        5.498658   -0.559918    0.915289
     25          6           0        2.943061   -0.191943    1.932167
     26          1           0        3.232307    0.567807    2.478219
     27          1           0        3.253100   -1.026800    2.342685
     28          1           0        1.963874   -0.200246    1.876570
     29         16           0       -4.105216    0.989453    0.043974
     30          6           0       -4.511835   -1.481915    0.201828
     31          1           0       -4.934643   -2.331811    0.268341
     32          6           0       -5.196064   -0.334014    0.178121
     33          1           0       -6.141912   -0.260140    0.229418
     34          1           0        5.144353    0.944351    1.332907
 ---------------------------------------------------------------------

 SCF Done:  E(RPBE1PBE) =  -1087.18867115     A.U. after   16 cycles

 The electronic state is 1-A.
 Alpha  occ. eigenvalues --  -89.04029 -14.38197 -14.37889 -10.29139 -10.27640
 Alpha  occ. eigenvalues --  -10.27221 -10.24964 -10.24790 -10.24457 -10.24134
 Alpha  occ. eigenvalues --  -10.23438 -10.23288 -10.22965 -10.22681 -10.21210
 Alpha  occ. eigenvalues --  -10.21018 -10.19063 -10.18241  -8.04277  -5.98388
 Alpha  occ. eigenvalues --   -5.98009  -5.97749  -0.98781  -0.95865  -0.90787
 Alpha  occ. eigenvalues --   -0.83602  -0.81960  -0.81494  -0.78867  -0.76289
 Alpha  occ. eigenvalues --   -0.75761  -0.72917  -0.68108  -0.65707  -0.64120
 Alpha  occ. eigenvalues --   -0.63655  -0.61046  -0.58311  -0.54483  -0.54064
 Alpha  occ. eigenvalues --   -0.53014  -0.50397  -0.49800  -0.48712  -0.47702
 Alpha  occ. eigenvalues --   -0.46865  -0.46041  -0.44522  -0.43989  -0.43746
 Alpha  occ. eigenvalues --   -0.42847  -0.42691  -0.41311  -0.40505  -0.40285
 Alpha  occ. eigenvalues --   -0.39924  -0.38135  -0.37645  -0.34817  -0.32637
 Alpha  occ. eigenvalues --   -0.31632  -0.29951  -0.29701  -0.28701  -0.28602
 Alpha  occ. eigenvalues --   -0.27559  -0.25392  -0.23808
 Alpha virt. eigenvalues --   -0.04940  -0.02030   0.02519   0.04504   0.06713
 Alpha virt. eigenvalues --    0.07479   0.10207   0.10968   0.11303   0.11573
 Alpha virt. eigenvalues --    0.12559   0.13213   0.13806   0.14416   0.14725

 Mulliken charges:
               1
     1  N   -0.161426
     2  N   -0.156117
     3  C   -0.082317
     4  C    0.097375
     5  C    0.040474
     6  H   -0.086993
     7  C    0.116685
     8  H   -0.102692
     9  C    0.059588
    10  C   -0.202150
    11  C   -0.053427
    12  H   -0.061099
    13  C    0.258636
    14  H   -0.015899
    15  H   -0.008040
    16  C   -0.175760
    17  H   -0.041438
    18  C    0.429481
    19  H    0.001792
    20  H   -0.004295
    21  C   -0.492285
    22  C    0.289909
    23  H   -0.037252
    24  H   -0.013174
    25  C    0.298696
    26  H   -0.021319
    27  H   -0.015936
    28  H   -0.018397
    29  S    0.099144
    30  C    0.193046
    31  H   -0.057142
    32  C   -0.023240
    33  H   -0.036566
    34  H   -0.017861
 Sum of Mulliken charges =  -0.00000

 Dipole moment (field-independent basis, Debye):
    X=              1.2884    Y=              2.0173    Z=              0.0684  Tot=              2.3946
 Quadrupole moment (field-independent basis, Debye-Ang):
   XX=            -92.4708   YY=           -109.3503   ZZ=           -113.5053
   XY=             -1.3894   XZ=             -1.0725   YZ=              0.1007

  Exact polarizability:     263.051       4.481     154.681      -5.889      -0.181     107.954
 Approx polarizability:     338.549       5.864     283.286     -12.348      -0.877     163.348

 Summary of Natural Population Analysis:

                                       Natural Population
                Natural  -----------------------------------------------
    Atom  No    Charge         Core      Valence    Rydberg      Total
 -----------------------------------------------------------------------
      N    1   -0.46291      1.99926     5.44703    0.01662     7.46291
      N    2   -0.45040      1.99923     5.43409    0.01708     7.45040
      C    3    0.03816      1.99911     3.92811    0.03462     5.96184
      C    4    0.15880      1.99890     3.81362    0.02867     5.84120
      C    5   -0.19825      1.99900     4.18527    0.01399     6.19825
      H    6    0.18827      0.00000     0.80831    0.00341     0.81173
      C    7   -0.13874      1.99895     4.12374    0.01605     6.13874
      H    8    0.18717      0.00000     0.80993    0.00290     0.81283
      C    9   -0.06976      1.99889     4.05073    0.02013     6.06976
      C   10    0.26270      1.99891     3.71198    0.02641     5.73730
      C   11   -0.21770      1.99897     4.19414    0.02459     6.21770
      H   12    0.20416      0.00000     0.79216    0.00368     0.79584
      C   13   -0.36055      1.99917     4.34428    0.01710     6.36055
      H   14    0.19199      0.00000     0.80487    0.00314     0.80801
      H   15    0.19990      0.00000     0.79749    0.00261     0.80010
      C   16   -0.19418      1.99902     4.17323    0.02193     6.19418
      H   17    0.19867      0.00000     0.79772    0.00361     0.80133
      C   18   -0.41592      1.99905     4.39959    0.01728     6.41592
      H   19    0.22484      0.00000     0.77157    0.00359     0.77516
      H   20    0.22187      0.00000     0.77464    0.00349     0.77813
      C   21   -0.01944      1.99907     4.00113    0.01924     6.01944
      C   22   -0.56286      1.99915     4.55056    0.01315     6.56286
      H   23    0.19183      0.00000     0.80577    0.00240     0.80817
      H   24    0.19733      0.00000     0.79971    0.00296     0.80267
      C   25   -0.57503      1.99915     4.56420    0.01169     6.57503
      H   26    0.19624      0.00000     0.80100    0.00276     0.80376
      H   27    0.19826      0.00000     0.79896    0.00278     0.80174
      H   28    0.20002      0.00000     0.79729    0.00269     0.79998
      S   29    0.38266      9.99877     5.58112    0.03744    15.61734
      C   30    0.02967      1.99902     3.95100    0.02030     5.97033
      H   31    0.17661      0.00000     0.82086    0.00252     0.82339
      C   32   -0.37652      1.99902     4.35943    0.01807     6.37652
      H   33    0.19650      0.00000     0.80099    0.00251     0.80350
      H   34    0.19660      0.00000     0.80067    0.00273     0.80340
 =======================================================================
   * Total *    0.00000     43.98266    91.59519    0.42215   136.00000

 ******   20 imaginary frequencies (negative Signs) ******

                      1                      2                      3
                      A                      A                      A
 Frequencies --  -1269.6325             -1232.0078             -1221.9544
 Red. masses --      1.0737                 1.0086                 1.0109
 Frc consts  --      1.0198                 0.9020                 0.8893
 IR Inten    --     52.0053                 0.1492                 1.8642

                      4                      5                      6
                      A                      A                      A
 Frequencies --  -1204.3263             -1093.9950             -1047.2419
 Red. masses --      1.0744                 1.0374                 1.0247
 Frc consts  --      0.9181                 0.7315                 0.6621
 IR Inten    --     20.2253                 1.3495                 0.1743

                      7                      8                      9
                      A                      A                      A
 Frequencies --   -926.7442              -844.5624              -814.1211
 Red. masses --      1.0490                 1.1074                 1.0460
 Frc consts  --      0.5308                 0.4654                 0.4085
 IR Inten    --      5.2372                 3.3155                 6.5770

                     10                     11                     12
                      A                      A                      A
 Frequencies --   -802.6205              -783.0223              -774.4092
 Red. masses --      1.0659                 1.0311                 1.0473
 Frc consts  --      0.4046                 0.3725                 0.3701
 IR Inten    --      5.3039                 0.4937                 4.8096

                     13                     14                     15
                      A                      A                      A
 Frequencies --   -753.7677              -623.4698              -573.5059
 Red. masses --      1.0579                 1.1331                 1.1578
 Frc consts  --      0.3541                 0.2595                 0.2244
 IR Inten    --      7.0041                 9.5008                10.5969

                     16                     17                     18
                      A                      A                      A
 Frequencies --   -503.4517              -413.6068              -323.5610
 Red. masses --      1.2088                 1.2796                 1.7863
 Frc consts  --      0.1805                 0.1290                 0.1102
 IR Inten    --      4.0467                 3.7525                 0.5746

                     19                     20                     21
                      A                      A                      A
 Frequencies --   -157.7244               -90.5790                81.1824
 Red. masses --      2.4384                 2.8934                 7.5439
 Frc consts  --      0.0357                 0.0140                 0.0293
 IR Inten    --      0.3434                 0.8291                 0.7452

                     22                     23                     24
                      A                      A                      A
 Frequencies --    123.9462               219.4437               241.0067
 Red. masses --      3.2101                 5.6778                 2.2140
 Frc consts  --      0.0291                 0.1611                 0.0758
 IR Inten    --      0.3720                 0.5425                 3.9657

                     25                     26                     27
                      A                      A                      A
 Frequencies --    276.8637               321.0277               337.7877
 Red. masses --      1.6493                 2.2180                 4.1246
 Frc consts  --      0.0745                 0.1347                 0.2773
 IR Inten    --      1.7330                 1.4560                 1.1818

                     28                     29                     30
                      A                      A                      A
 Frequencies --    359.6845               409.9304               438.0679
 Red. masses --      1.9505                 5.2435                 2.8833
 Frc consts  --      0.1487                 0.5192                 0.3260
 IR Inten    --      2.7263                 3.9065                 1.0370

                     31                     32                     33
                      A                      A                      A
 Frequencies --    454.9581               468.0389               487.5013
 Red. masses --      3.5616                 2.4799                 2.6015
 Frc consts  --      0.4344                 0.3201                 0.3643
 IR Inten    --      2.3565                 0.6777                 2.9844

                     34                     35                     36
                      A                      A                      A
 Frequencies --    525.0632               535.4306               553.1151
 Red. masses --      4.0724                 2.9711                 6.3795
 Frc consts  --      0.6615                 0.5018                 1.1499
 IR Inten    --      0.8049                 1.8270                 0.2464

                     37                     38                     39
                      A                      A                      A
 Frequencies --    564.9592               621.9459               642.0135
 Red. masses --      3.1053                 6.3311                 2.5042
 Frc consts  --      0.5840                 1.4429                 0.6081
 IR Inten    --      0.0668                 2.4208                 0.8743

                     40                     41                     42
                      A                      A                      A
 Frequencies --    677.3751               686.7585               694.3255
 Red. masses --      5.4961                 3.8121                 8.5035
 Frc consts  --      1.4858                 1.0593                 2.4153
 IR Inten    --      2.6128                 0.8198                 0.7923

                     43                     44                     45
                      A                      A                      A
 Frequencies --    716.9532               729.7594               730.5269
 Red. masses --      3.1368                 1.9549                 1.6011
 Frc consts  --      0.9500                 0.6134                 0.5034
 IR Inten    --      5.1959                 9.0859                11.4617

                     46                     47                     48
                      A                      A                      A
 Frequencies --    744.1497               763.4222               789.5790
 Red. masses --      2.6308                 1.3724                 8.5547
 Frc consts  --      0.8583                 0.4713                 3.1423
 IR Inten    --      2.6257                14.1688                 0.7645

                     49                     50                     51
                      A                      A                      A
 Frequencies --    810.4416               831.6541               852.0642
 Red. masses --      4.2061                 2.4254                 7.0274
 Frc consts  --      1.6277                 0.9884                 3.0060
 IR Inten    --      2.7499                 6.1991                 2.9704

                     52                     53                     54
                      A                      A                      A
 Frequencies --    878.8849               921.4721               932.0052
 Red. masses --      3.9152                 4.3469                 4.1693
 Frc consts  --      1.7818                 2.1747                 2.1338
 IR Inten    --      5.1906                 3.0263                 4.3674

                     55                     56                     57
                      A                      A                      A
 Frequencies --    947.5910               963.7599               986.6366
 Red. masses --      6.2260                 5.2221                 5.3730
 Frc consts  --      3.2938                 2.8578                 3.0816
 IR Inten    --      2.7394                11.2158                19.0284

                     58                     59                     60
                      A                      A                      A
 Frequencies --   1012.2461              1065.7992              1070.1744
 Red. masses --      5.0430                 2.0216                 1.1885
 Frc consts  --      3.0445                 1.3530                 0.8020
 IR Inten    --      8.1557                10.0478                16.4125

                     61                     62                     63
                      A                      A                      A
 Frequencies --   1079.7999              1093.4714              1097.8663
 Red. masses --      1.9100                 1.1105                 2.0372
 Frc consts  --      1.3121                 0.7823                 1.4467
 IR Inten    --     16.2859                 4.9616                 0.7567

                     64                     65                     66
                      A                      A                      A
 Frequencies --   1115.8693              1138.7620              1153.0286
 Red. masses --      1.0827                 1.1094                 5.5043
 Frc consts  --      0.7943                 0.8476                 4.3115
 IR Inten    --      2.3714                13.6532                19.2204

                     67                     68                     69
                      A                      A                      A
 Frequencies --   1177.2381              1218.5368              1232.0406
 Red. masses --      4.1544                 8.2843                 1.8925
 Frc consts  --      3.3922                 7.2475                 1.6925
 IR Inten    --      2.3991                 8.7148                 4.8655

                     70                     71                     72
                      A                      A                      A
 Frequencies --   1233.2109              1290.4993              1304.0517
 Red. masses --      5.9632                 3.9861                 5.9587
 Frc consts  --      5.3432                 3.9113                 5.9702
 IR Inten    --     19.8701                 3.5358                 1.9648

                     73                     74                     75
                      A                      A                      A
 Frequencies --   1321.2755              1387.0927              1435.7829
 Red. masses --      9.5995                10.2045                10.4095
 Frc consts  --      9.8738                11.5679                12.6432
 IR Inten    --     29.1733                28.5548                 5.0496

                     76                     77                     78
                      A                      A                      A
 Frequencies --   1460.8448              1536.8619              1611.9978
 Red. masses --      9.5399                10.6549                 9.1634
 Frc consts  --     11.9951                14.8276                14.0292
 IR Inten    --     73.1081                26.6481                 7.7608

                     79                     80                     81
                      A                      A                      A
 Frequencies --   1683.9812              1726.2016              4129.3476
 Red. masses --     11.6772                10.6486                 1.0886
 Frc consts  --     19.5103                18.6950                10.9362
 IR Inten    --     20.0397                13.7863                24.4027

                     82                     83                     84
                      A                      A                      A
 Frequencies --   4143.5213              4176.3491              4189.4013
 Red. masses --      1.0889                 1.0569                 1.0607
 Frc consts  --     11.0148                10.8610                10.9684
 IR Inten    --     16.7396                11.9006                 2.1356

                     85                     86                     87
                      A                      A                      A
 Frequencies --   4230.1089              4232.3290              4301.5031
 Red. masses --      1.0322                 1.0325                 1.1080
 Frc consts  --     10.8823                10.8970                12.0792
 IR Inten    --     12.8339                11.8863                 0.6212

                     88                     89                     90
                      A                      A                      A
 Frequencies --   4310.3534              4417.2704              4418.1360
 Red. masses --      1.1141                 1.1065                 1.1061
 Frc consts  --     12.1955                12.7206                12.7214
 IR Inten    --      8.3620                 5.2804                 2.4882

                     91                     92                     93
                      A                      A                      A
 Frequencies --   4427.7181              4430.7080              4765.7646
 Red. masses --      1.1071                 1.1065                 1.0895
 Frc consts  --     12.7874                12.7982                14.5796
 IR Inten    --      2.3311                 6.2823                 3.5294

                     94                     95                     96
                      A                      A                      A
 Frequencies --   4766.9726              4795.3076              4801.6175
 Red. masses --      1.0894                 1.0933                 1.0907
 Frc consts  --     14.5860                14.8119                14.8165
 IR Inten    --      2.0652                14.4917                 0.4124

 - Thermochemistry -
 -------------------
 Temperature   298.150 Kelvin.  Pressure   1.00000 Atm.
 Atom     1 has atomic number  7 and mass  14.00307

 Molecular mass:   256.10342 amu.
 Principal axes and moments of inertia in atomic units:
                           1         2         3
     Eigenvalues --  1431.359249622.46248**********
           X            0.99999   0.00253   0.00329
           Y           -0.00253   0.99999   0.00239
           Z           -0.00329  -0.00240   0.99999
 This molecule is an asymmetric top.
 Rotational symmetry number  1.
 Warning -- assumption of classical behavior for rotation
           may cause significant error
 Rotational temperatures (Kelvin)      0.06051     0.00900     0.00853
 Rotational constants (GHZ):           1.26086     0.18756     0.17780
   20 imaginary frequencies ignored.
 Zero-point vibrational energy     731530.6 (Joules/Mol)
                                  174.84001 (Kcal/Mol)
 Warning -- explicit consideration of  17 degrees of freedom as
           vibrations may cause significant error
 Vibrational temperatures:    116.80   178.33   315.73   346.75   398.35
          (Kelvin)            461.89   486.00   517.51   589.80   630.28
                              654.58   673.40   701.41   755.45   770.37
                              795.81   812.85   894.84   923.71   974.59
                              988.09   998.98  1031.54  1049.96  1051.07
                             1070.67  1098.39  1136.03  1166.04  1196.56
                             1225.93  1264.52  1325.79  1340.95  1363.37
                             1386.64  1419.55  1456.40  1533.45  1539.74
                             1553.59  1573.26  1579.58  1605.49  1638.42
                             1658.95  1693.78  1753.20  1772.63  1774.32
                             1856.74  1876.24  1901.02  1995.72  2065.77
                             2101.83  2211.20  2319.31  2422.87  2483.62
                             5941.21  5961.60  6008.83  6027.61  6086.18
                             6089.38  6188.90  6201.64  6355.47  6356.71
                             6370.50  6374.80  6856.87  6858.61  6899.38
                             6908.46

 Zero-point correction=                           0.278625 (Hartree/Particle)
 Thermal correction to Energy=                    0.289680
 Thermal correction to Enthalpy=                  0.290624
 Thermal correction to Gibbs Free Energy=         0.241509
 Sum of electronic and zero-point Energies=          -1086.910046
 Sum of electronic and thermal Energies=             -1086.898991
 Sum of electronic and thermal Enthalpies=           -1086.898047
 Sum of electronic and thermal Free Energies=        -1086.947162

                     E (Thermal)             CV                S
                      KCal/Mol        Cal/Mol-Kelvin    Cal/Mol-Kelvin
 Total                  181.777             49.112            103.370
 Electronic               0.000              0.000              0.000
 Translational            0.889              2.981             42.521
 Rotational               0.889              2.981             33.302
 Vibrational            179.999             43.150             27.547
 Vibration     1          0.600              1.962              3.862
 Vibration     2          0.610              1.929              3.038
 Vibration     3          0.647              1.811              1.964
 Vibration     4          0.658              1.778              1.795
 Vibration     5          0.678              1.716              1.553
 Vibration     6          0.706              1.633              1.305
 Vibration     7          0.718              1.600              1.223
 Vibration     8          0.734              1.555              1.123
 Vibration     9          0.774              1.449              0.927
 Vibration    10          0.798              1.387              0.833
 Vibration    11          0.813              1.350              0.781
 Vibration    12          0.825              1.321              0.743
 Vibration    13          0.843              1.278              0.690
 Vibration    14          0.880              1.195              0.598
 Vibration    15          0.890              1.172              0.575
 Vibration    16          0.908              1.133              0.538
 Vibration    17          0.921              1.107              0.514

 Normal termination of Gaussian 16 at Sat Mar  4 12:34:08 2023.
