 Gaussian 16, Revision C.01,
 Gaussian 16:  ES64L-G16RevC.01  3-Jul-2019

 ----------------------------------------------------------------------
 #p pop=(regular,nbo,savenbos) freq=noraman def2svp empiricaldispersion
 =gd3bj output=wfx pbe1pbe
 ----------------------------------------------------------------------

 -----------------------------------------
 YEYVEE_Complex_15_Ligand_0_NN_Cu_oriented
 -----------------------------------------
 Symbolic Z-matrix:
 Charge = -1 Multiplicity = 1

                         Standard orientation:
 ---------------------------------------------------------------------
 Center     Atomic      Atomic             Coordinates (Angstroms)
 Number     Number       Type             X           Y           Z
 ---------------------------------------------------------------------
      1         16           0        0.756683    2.416955   -0.792919
      2          6           0        3.733208   -2.087542   -1.656270
      3          1           0        3.876615   -2.280683   -2.553421
      4          7           0        3.155311   -0.948899   -1.316839
      5          7           0        1.827917    1.259718   -0.880297
      6          8           0        0.421007    2.692603   -2.198754
      7          8           0        1.222325    3.498619   -0.012513
      8          6           0        2.022490    0.917274    1.630111
      9          1           0        1.577312    1.698332    1.870234
     10          6           0        2.510356    0.028912    2.597657
     11          1           0        2.520134    0.330638    3.477730
     12          6           0        2.952645   -1.181628    2.386616
     13          1           0        3.058030   -1.788384    3.083644
     14          6           0        3.269867   -1.535617    1.030780
     15          6           0        2.937885   -0.654654    0.015590
     16          6           0        2.233070    0.578011    0.286729
     17          6           0        3.927780   -2.745363    0.665619
     18          1           0        4.214942   -3.345645    1.315526
     19          6           0        4.130103   -3.006180   -0.678321
     20          1           0        4.536379   -3.801455   -0.934881
     21          6           0       -4.308854   -3.025868    0.581733
     22          1           0       -3.888333   -3.304896    1.397664
     23          1           0       -5.216022   -3.337671    0.566838
     24          1           0       -3.831703   -3.394392   -0.165771
     25          6           0       -5.575688   -0.805681    0.159306
     26          1           0       -5.436292   -0.212959   -0.583818
     27          1           0       -6.237050   -1.459810   -0.072283
     28          1           0       -5.875721   -0.300448    0.918528
     29          6           0       -2.796848    0.661425    1.517156
     30          1           0       -3.478294    0.296579    2.034483
     31          6           0       -2.136361    1.699530    1.955179
     32          1           0       -2.383542    2.072363    2.770621
     33          6           0       -1.027737    2.301151    1.222130
     34          1           0       -0.599133    3.065447    1.533802
     35          6           0       -0.646553    1.696228    0.057864
     36          6           0       -1.384060    0.615997   -0.528097
     37          6           0       -2.470746    0.071109    0.220701
     38          6           0       -2.765527   -1.615094   -1.486316
     39          1           0       -3.186318   -2.384390   -1.797418
     40          6           0       -3.184682   -1.000002   -0.278943
     41          7           0       -4.291596   -1.491619    0.494051
     42          6           0       -1.044046    0.007454   -1.719227
     43          1           0       -0.325319    0.343549   -2.202674
     44          6           0       -1.703357   -1.041601   -2.202535
     45          1           0       -1.458369   -1.398771   -3.025130
 ---------------------------------------------------------------------

 SCF Done:  E(RPBE1PBE) =  -1521.20792797     A.U. after   15 cycles

 The electronic state is 1-A.
 Alpha  occ. eigenvalues --  -89.05027 -19.02526 -19.01292 -14.30086 -14.25400
 Alpha  occ. eigenvalues --  -14.19117 -10.16492 -10.14264 -10.13951 -10.13533
 Alpha  occ. eigenvalues --  -10.13500 -10.13418 -10.13238 -10.13021 -10.12869
 Alpha  occ. eigenvalues --  -10.12251 -10.12095 -10.12008 -10.11924 -10.11551
 Alpha  occ. eigenvalues --  -10.11408 -10.11054 -10.11032 -10.09530 -10.08682
 Alpha  occ. eigenvalues --  -10.07876 -10.07213  -8.01852  -5.96058  -5.95972
 Alpha  occ. eigenvalues --   -5.95898  -0.97689  -0.85100  -0.84547  -0.83209
 Alpha  occ. eigenvalues --   -0.78842  -0.75989  -0.74521  -0.73323  -0.69898
 Alpha  occ. eigenvalues --   -0.69181  -0.68322  -0.66690  -0.65567  -0.65173
 Alpha  occ. eigenvalues --   -0.62019  -0.59958  -0.55776  -0.55292  -0.54694
 Alpha  occ. eigenvalues --   -0.53419  -0.52009  -0.50071  -0.46754  -0.45286
 Alpha  occ. eigenvalues --   -0.44758  -0.43699  -0.43100  -0.41574  -0.41230
 Alpha  occ. eigenvalues --   -0.40191  -0.39966  -0.39530  -0.37314  -0.37114
 Alpha  occ. eigenvalues --   -0.35945  -0.35801  -0.34481  -0.34147  -0.33740
 Alpha  occ. eigenvalues --   -0.33133  -0.32499  -0.32223  -0.31907  -0.31465
 Alpha  occ. eigenvalues --   -0.30576  -0.30117  -0.29561  -0.29318  -0.27476
 Alpha  occ. eigenvalues --   -0.26714  -0.25565  -0.24675  -0.23997  -0.23120
 Alpha  occ. eigenvalues --   -0.20919  -0.19935  -0.19041  -0.17968  -0.15974
 Alpha  occ. eigenvalues --   -0.15180  -0.14977  -0.14235  -0.14135  -0.13761
 Alpha  occ. eigenvalues --   -0.12985  -0.11671  -0.09340  -0.05611
 Alpha virt. eigenvalues --    0.06383   0.07845   0.09020   0.11503   0.13533
 Alpha virt. eigenvalues --    0.15760   0.15876   0.19115   0.19744   0.19969
 Alpha virt. eigenvalues --    0.20151   0.21243   0.21552   0.21959   0.22123

 Mulliken charges:
               1
     1  S    0.834504
     2  C    0.171176
     3  H   -0.102846
     4  N   -0.139311
     5  N   -0.412425
     6  O   -0.525629
     7  O   -0.482683
     8  C    0.022329
     9  H   -0.162365
    10  C    0.134578
    11  H   -0.121812
    12  C    0.049570
    13  H   -0.155875
    14  C   -0.000251
    15  C   -0.006422
    16  C    0.125406
    17  C    0.131827
    18  H   -0.132820
    19  C    0.021211
    20  H   -0.118472
    21  C    0.307404
    22  H   -0.014272
    23  H   -0.044283
    24  H   -0.029669
    25  C    0.323137
    26  H   -0.015717
    27  H   -0.045516
    28  H   -0.022611
    29  C    0.117719
    30  H   -0.140570
    31  C    0.117821
    32  H   -0.116522
    33  C    0.097679
    34  H   -0.104776
    35  C   -0.080812
    36  C    0.039522
    37  C    0.011975
    38  C    0.056227
    39  H   -0.142156
    40  C    0.030905
    41  N   -0.512557
    42  C    0.144087
    43  H   -0.110333
    44  C    0.119388
    45  H   -0.115761
 Sum of Mulliken charges =  -1.00000

 Dipole moment (field-independent basis, Debye):
    X=             -8.0192    Y=             -8.3813    Z=              4.0328  Tot=             12.2808
 Quadrupole moment (field-independent basis, Debye-Ang):
   XX=           -180.5299   YY=           -185.9968   ZZ=           -173.8475
   XY=             -5.7670   XZ=              3.3626   YZ=             14.3847

  Exact polarizability:     257.165     -16.967     258.387     -11.968      25.011     247.141
 Approx polarizability:     333.328     -20.488     436.647     -36.286      55.590     484.301

 Summary of Natural Population Analysis:

                                       Natural Population
                Natural  -----------------------------------------------
    Atom  No    Charge         Core      Valence    Rydberg      Total
 -----------------------------------------------------------------------
      S    1    2.30619      9.99794     3.45797    0.23789    13.69381
      C    2    0.08061      1.99913     3.89839    0.02186     5.91939
      H    3    0.13919      0.00000     0.85761    0.00319     0.86081
      N    4   -0.42673      1.99933     5.41017    0.01723     7.42673
      N    5   -0.92822      1.99930     5.91327    0.01565     7.92822
      O    6   -0.97559      1.99979     6.96790    0.00790     8.97559
      O    7   -0.99825      1.99975     6.98992    0.00858     8.99825
      C    8   -0.27823      1.99899     4.26128    0.01796     6.27823
      H    9    0.18112      0.00000     0.81462    0.00426     0.81888
      C   10   -0.14625      1.99904     4.13201    0.01520     6.14625
      H   11    0.15840      0.00000     0.83778    0.00382     0.84160
      C   12   -0.25262      1.99900     4.23540    0.01822     6.25262
      H   13    0.16348      0.00000     0.83298    0.00354     0.83652
      C   14   -0.07703      1.99893     4.06235    0.01574     6.07703
      C   15    0.16265      1.99875     3.81367    0.02493     5.83735
      C   16    0.20545      1.99897     3.76889    0.02668     5.79455
      C   17   -0.14195      1.99907     4.12743    0.01546     6.14195
      H   18    0.16123      0.00000     0.83564    0.00314     0.83877
      C   19   -0.23171      1.99912     4.21895    0.01364     6.23171
      H   20    0.15692      0.00000     0.83942    0.00367     0.84308
      C   21   -0.28706      1.99905     4.27927    0.00874     6.28706
      H   22    0.17356      0.00000     0.82423    0.00221     0.82644
      H   23    0.16178      0.00000     0.83564    0.00259     0.83822
      H   24    0.16407      0.00000     0.83252    0.00340     0.83593
      C   25   -0.28839      1.99909     4.28028    0.00902     6.28839
      H   26    0.17709      0.00000     0.82007    0.00284     0.82291
      H   27    0.15923      0.00000     0.83778    0.00299     0.84077
      H   28    0.16546      0.00000     0.83196    0.00259     0.83454
      C   29   -0.15535      1.99899     4.13977    0.01659     6.15535
      H   30    0.17760      0.00000     0.81816    0.00423     0.82240
      C   31   -0.16775      1.99900     4.15348    0.01528     6.16775
      H   32    0.16218      0.00000     0.83452    0.00330     0.83782
      C   33   -0.15777      1.99893     4.14015    0.01869     6.15777
      H   34    0.18955      0.00000     0.80661    0.00384     0.81045
      C   35   -0.25246      1.99881     4.22330    0.03035     6.25246
      C   36   -0.04232      1.99887     4.02495    0.01850     6.04232
      C   37   -0.06675      1.99881     4.05046    0.01748     6.06675
      C   38   -0.21018      1.99903     4.19657    0.01458     6.21018
      H   39    0.16343      0.00000     0.83363    0.00294     0.83657
      C   40    0.17603      1.99882     3.80535    0.01980     5.82397
      N   41   -0.58205      1.99932     5.57028    0.01245     7.58205
      C   42   -0.13261      1.99896     4.11694    0.01672     6.13261
      H   43    0.20742      0.00000     0.78654    0.00603     0.79258
      C   44   -0.16183      1.99907     4.14811    0.01465     6.16183
      H   45    0.16846      0.00000     0.82830    0.00324     0.83154
 =======================================================================
   * Total *   -1.00000     61.97387   135.29454    0.73159   198.00000

 ******   31 imaginary frequencies (negative Signs) ******

                      1                      2                      3
                      A                      A                      A
 Frequencies --  -1470.6371             -1453.2626             -1439.6678
 Red. masses --      1.0730                 1.0723                 1.0710
 Frc consts  --      1.3673                 1.3343                 1.3079
 IR Inten    --     23.6669                63.6050                 7.5054

                      4                      5                      6
                      A                      A                      A
 Frequencies --  -1436.6541             -1433.3335             -1431.3907
 Red. masses --      1.0102                 1.0592                 1.0172
 Frc consts  --      1.2284                 1.2821                 1.2279
 IR Inten    --      1.7758                50.7956                10.9973

                      7                      8                      9
                      A                      A                      A
 Frequencies --  -1378.6075             -1357.4937             -1330.0814
 Red. masses --      1.0486                 1.0360                 1.0351
 Frc consts  --      1.1742                 1.1248                 1.0790
 IR Inten    --     13.3989                 0.0218                 0.1163

                     10                     11                     12
                      A                      A                      A
 Frequencies --  -1322.4252             -1252.8375             -1217.4091
 Red. masses --      1.0410                 1.0352                 1.0333
 Frc consts  --      1.0726                 0.9573                 0.9023
 IR Inten    --      0.6700                 0.0354                 2.7673

                     13                     14                     15
                      A                      A                      A
 Frequencies --  -1195.9727             -1180.1794              -974.3387
 Red. masses --      1.0280                 1.0293                 1.0953
 Frc consts  --      0.8663                 0.8447                 0.6127
 IR Inten    --      0.7929                 0.0899                 0.8226

                     16                     17                     18
                      A                      A                      A
 Frequencies --   -955.4892              -950.6752              -939.4009
 Red. masses --      1.0867                 1.0890                 1.0485
 Frc consts  --      0.5845                 0.5799                 0.5452
 IR Inten    --     18.0829                 2.1994                 5.4370

                     19                     20                     21
                      A                      A                      A
 Frequencies --   -921.2555              -915.1239              -911.2399
 Red. masses --      1.0767                 1.0436                 1.0636
 Frc consts  --      0.5384                 0.5149                 0.5203
 IR Inten    --      0.5466                13.7456                 4.6088

                     22                     23                     24
                      A                      A                      A
 Frequencies --   -873.2902              -865.0652              -856.2046
 Red. masses --      1.1008                 1.1158                 1.0242
 Frc consts  --      0.4946                 0.4920                 0.4424
 IR Inten    --      9.6595                12.3650                 1.4606

                     25                     26                     27
                      A                      A                      A
 Frequencies --   -849.6271              -796.4618              -771.3491
 Red. masses --      1.0935                 1.0957                 1.0730
 Frc consts  --      0.4651                 0.4095                 0.3761
 IR Inten    --      5.2995                 4.0489                 7.1596

                     28                     29                     30
                      A                      A                      A
 Frequencies --   -754.4339              -722.0641              -650.6908
 Red. masses --      1.0934                 1.1010                 1.1177
 Frc consts  --      0.3667                 0.3382                 0.2788
 IR Inten    --      9.1723                 2.2673                14.1819

                     31                     32                     33
                      A                      A                      A
 Frequencies --    -78.6574                 1.1829                83.9835
 Red. masses --     10.9023                 7.6395                 8.4210
 Frc consts  --      0.0397                 0.0000                 0.0350
 IR Inten    --      4.9143                 1.1047                 0.4705

                     34                     35                     36
                      A                      A                      A
 Frequencies --    109.2401               127.7781               138.2110
 Red. masses --      7.5912                 8.3558                 9.5917
 Frc consts  --      0.0534                 0.0804                 0.1080
 IR Inten    --      0.3265                 0.8214                 1.2304

                     37                     38                     39
                      A                      A                      A
 Frequencies --    147.4576               216.4927               228.3385
 Red. masses --      8.8407                10.5259                 9.4751
 Frc consts  --      0.1133                 0.2907                 0.2911
 IR Inten    --      0.2560                 0.4527                 0.8530

                     40                     41                     42
                      A                      A                      A
 Frequencies --    231.6267               236.8474               262.5927
 Red. masses --      9.6485                 8.9687                 9.2655
 Frc consts  --      0.3050                 0.2964                 0.3764
 IR Inten    --      2.2087                 0.4725                 1.0675

                     43                     44                     45
                      A                      A                      A
 Frequencies --    276.3180               287.3541               353.7151
 Red. masses --     12.3643                 9.8360                 2.8977
 Frc consts  --      0.5562                 0.4785                 0.2136
 IR Inten    --      2.7084                 1.3814                 1.7553

                     46                     47                     48
                      A                      A                      A
 Frequencies --    365.5970               367.5711               393.5702
 Red. masses --      6.9109                 7.7545                 8.4785
 Frc consts  --      0.5442                 0.6173                 0.7738
 IR Inten    --      5.6158                 2.6785                 1.1281

                     49                     50                     51
                      A                      A                      A
 Frequencies --    411.5746               417.8897               433.5454
 Red. masses --      4.8327                 4.2547                 4.9719
 Frc consts  --      0.4823                 0.4378                 0.5506
 IR Inten    --      1.2471                 1.6820                 5.2020

                     52                     53                     54
                      A                      A                      A
 Frequencies --    472.2213               482.0521               517.0145
 Red. masses --      4.1564                 2.6766                 8.6508
 Frc consts  --      0.5461                 0.3665                 1.3624
 IR Inten    --     14.1274                 6.1187                11.5091

                     55                     56                     57
                      A                      A                      A
 Frequencies --    524.0278               555.9354               566.4396
 Red. masses --      9.1251                 6.9887                 7.2012
 Frc consts  --      1.4764                 1.2726                 1.3613
 IR Inten    --     64.7048                 7.0923                39.1940

                     58                     59                     60
                      A                      A                      A
 Frequencies --    569.0761               583.8984               603.3294
 Red. masses --      8.7663                 7.1763                10.7173
 Frc consts  --      1.6727                 1.4415                 2.2985
 IR Inten    --     20.6477                 2.8828               103.0195

                     61                     62                     63
                      A                      A                      A
 Frequencies --    621.3542               628.2877               636.1933
 Red. masses --      7.0014                 5.5746                 7.4233
 Frc consts  --      1.5926                 1.2965                 1.7702
 IR Inten    --     19.6458                20.2385                15.8702

                     64                     65                     66
                      A                      A                      A
 Frequencies --    654.2780               660.8749               661.3924
 Red. masses --      7.3396                 8.1738                 6.3298
 Frc consts  --      1.8512                 2.1034                 1.6314
 IR Inten    --     29.4620                 0.4453                 0.8357

                     67                     68                     69
                      A                      A                      A
 Frequencies --    664.9464               702.1071               728.1999
 Red. masses --      5.8263                 3.4666                 7.2201
 Frc consts  --      1.5178                 1.0068                 2.2558
 IR Inten    --     39.0997                 6.9638                 3.4578

                     70                     71                     72
                      A                      A                      A
 Frequencies --    745.1490               759.4724               770.7064
 Red. masses --      3.0297                 9.5337                 8.0962
 Frc consts  --      0.9912                 3.2399                 2.8334
 IR Inten    --      3.9101                10.1075                12.0584

                     73                     74                     75
                      A                      A                      A
 Frequencies --    786.8332               820.9547               872.3004
 Red. masses --      7.4452                 4.7260                 8.0277
 Frc consts  --      2.7158                 1.8766                 3.5989
 IR Inten    --     18.2586                 0.8875                 0.4177

                     76                     77                     78
                      A                      A                      A
 Frequencies --    879.7144               886.8108               890.9603
 Red. masses --     10.3525                 5.8171                 6.0804
 Frc consts  --      4.7204                 2.6954                 2.8438
 IR Inten    --      1.9798                 1.3765                12.4344

                     79                     80                     81
                      A                      A                      A
 Frequencies --    908.3480               915.9541               971.8725
 Red. masses --      5.5921                 7.0746                 1.6508
 Frc consts  --      2.7185                 3.4970                 0.9187
 IR Inten    --      9.3715                31.8696                 4.4296

                     82                     83                     84
                      A                      A                      A
 Frequencies --    978.3190               999.2137              1003.7080
 Red. masses --      1.1947                 3.2320                 1.4527
 Frc consts  --      0.6737                 1.9012                 0.8623
 IR Inten    --      7.6185                51.6382                44.5952

                     85                     86                     87
                      A                      A                      A
 Frequencies --   1010.2445              1058.0383              1112.4157
 Red. masses --      1.0703                 1.7290                 5.5969
 Frc consts  --      0.6436                 1.1404                 4.0807
 IR Inten    --      2.4365                 8.0669                15.1786

                     88                     89                     90
                      A                      A                      A
 Frequencies --   1152.0501              1154.4128              1188.2694
 Red. masses --      7.4461                 4.1633                14.4764
 Frc consts  --      5.8227                 3.2690                12.0432
 IR Inten    --     66.7550                 3.0178               272.6170

                     91                     92                     93
                      A                      A                      A
 Frequencies --   1201.6114              1225.4836              1266.8626
 Red. masses --     10.7084                 7.2077                 7.9354
 Frc consts  --      9.1097                 6.3777                 7.5038
 IR Inten    --    570.5292                41.6907                 8.3083

                     94                     95                     96
                      A                      A                      A
 Frequencies --   1292.6691              1320.7087              1333.6970
 Red. masses --      8.9828                 9.5165                 9.1207
 Frc consts  --      8.8438                 9.7801                 9.5585
 IR Inten    --     23.6824               158.9840                 9.6046

                     97                     98                     99
                      A                      A                      A
 Frequencies --   1352.4800              1382.5318              1388.1015
 Red. masses --      9.1352                10.2109                 9.6743
 Frc consts  --      9.8453                11.4992                10.9828
 IR Inten    --      9.7739               341.6556                70.3571

                    100                    101                    102
                      A                      A                      A
 Frequencies --   1458.5109              1486.8052              1497.2401
 Red. masses --     10.6953                10.9207                16.2143
 Frc consts  --     13.4049                14.2236                21.4156
 IR Inten    --      9.7058                76.4475               191.5055

                    103                    104                    105
                      A                      A                      A
 Frequencies --   1504.6174              1528.9708              1596.4749
 Red. masses --      9.6888                10.2364                10.9676
 Frc consts  --     12.9233                14.0993                16.4697
 IR Inten    --      4.7067                72.3232                17.1621

                    106                    107                    108
                      A                      A                      A
 Frequencies --   1601.2450              1648.4649              1661.4194
 Red. masses --     10.5813                10.6177                10.9425
 Frc consts  --     15.9846                16.9996                17.7962
 IR Inten    --     42.3129                 1.5215                33.3727

                    109                    110                    111
                      A                      A                      A
 Frequencies --   1783.0885              1833.1127              1842.6281
 Red. masses --     10.1096                 9.7322                 9.5541
 Frc consts  --     18.9378                19.2682                19.1124
 IR Inten    --      5.6413                 5.1965                60.9461

                    112                    113                    114
                      A                      A                      A
 Frequencies --   4466.5799              4476.3431              4668.2407
 Red. masses --      1.0308                 1.0307                 1.1082
 Frc consts  --     12.1162                12.1679                14.2289
 IR Inten    --     37.7284                30.8626                 5.4390

                    115                    116                    117
                      A                      A                      A
 Frequencies --   4682.1871              4685.9901              4689.7029
 Red. masses --      1.1076                 1.1077                 1.1077
 Frc consts  --     14.3062                14.3309                14.3537
 IR Inten    --      2.9004                 5.6868                 7.1965

                    118                    119                    120
                      A                      A                      A
 Frequencies --   5004.8308              5020.2704              5025.4066
 Red. masses --      1.0861                 1.0864                 1.0874
 Frc consts  --     16.0282                16.1324                16.1797
 IR Inten    --      9.7240                 5.5076                 4.6332

                    121                    122                    123
                      A                      A                      A
 Frequencies --   5027.3296              5029.3326              5034.8553
 Red. masses --      1.0912                 1.0874                 1.0902
 Frc consts  --     16.2485                16.2048                16.2822
 IR Inten    --      6.9687                 0.5201                 0.0840

                    124                    125                    126
                      A                      A                      A
 Frequencies --   5035.8747              5039.2025              5040.6018
 Red. masses --      1.0889                 1.0917                 1.0893
 Frc consts  --     16.2702                16.3331                16.3059
 IR Inten    --      3.2197                 3.8452                 5.5748

                    127                    128                    129
                      A                      A                      A
 Frequencies --   5046.9619              5048.3681              5050.7630
 Red. masses --      1.0898                 1.0920                 1.0908
 Frc consts  --     16.3553                16.3972                16.3956
 IR Inten    --      5.7585                11.8026                 9.7266

 - Thermochemistry -
 -------------------
 Temperature   298.150 Kelvin.  Pressure   1.00000 Atm.
 Atom     1 has atomic number 16 and mass  31.97207

 Molecular mass:   376.11197 amu.
 Principal axes and moments of inertia in atomic units:
                           1         2         3
     Eigenvalues --  6983.98749********************
           X            0.99995   0.00961  -0.00033
           Y           -0.00960   0.99963   0.02555
           Z            0.00057  -0.02555   0.99967
 This molecule is an asymmetric top.
 Rotational symmetry number  1.
 Warning -- assumption of classical behavior for rotation
           may cause significant error
 Rotational temperatures (Kelvin)      0.01240     0.00671     0.00572
 Rotational constants (GHZ):           0.25841     0.13981     0.11916
   31 imaginary frequencies ignored.
 Zero-point vibrational energy     927511.6 (Joules/Mol)
                                  221.68059 (Kcal/Mol)
 Warning -- explicit consideration of  29 degrees of freedom as
           vibrations may cause significant error
 Vibrational temperatures:      1.70   120.83   157.17   183.84   198.85
          (Kelvin)            212.16   311.48   328.53   333.26   340.77
                              377.81   397.56   413.44   508.92   526.01
                              528.85   566.26   592.16   601.25   623.78
                              679.42   693.57   743.87   753.96   799.87
                              814.98   818.77   840.10   868.06   893.99
                              903.97   915.34   941.36   950.85   951.60
                              956.71  1010.18  1047.72  1072.10  1092.71
                             1108.87  1132.08  1181.17  1255.05  1265.71
                             1275.92  1281.89  1306.91  1317.85  1398.31
                             1407.58  1437.65  1444.11  1453.52  1522.28
                             1600.52  1657.54  1660.94  1709.65  1728.85
                             1763.20  1822.73  1859.86  1900.21  1918.89
                             1945.92  1989.15  1997.17  2098.47  2139.18
                             2154.19  2164.81  2199.85  2296.97  2303.83
                             2371.77  2390.41  2565.47  2637.44  2651.13
                             6426.41  6440.46  6716.56  6736.62  6742.09
                             6747.44  7200.84  7223.05  7230.44  7233.21
                             7236.09  7244.03  7245.50  7250.29  7252.30
                             7261.45  7263.48  7266.92

 Zero-point correction=                           0.353271 (Hartree/Particle)
 Thermal correction to Energy=                    0.370322
 Thermal correction to Enthalpy=                  0.371266
 Thermal correction to Gibbs Free Energy=         0.305802
 Sum of electronic and zero-point Energies=          -1520.854657
 Sum of electronic and thermal Energies=             -1520.837606
 Sum of electronic and thermal Enthalpies=           -1520.836662
 Sum of electronic and thermal Free Energies=        -1520.902126

                     E (Thermal)             CV                S
                      KCal/Mol        Cal/Mol-Kelvin    Cal/Mol-Kelvin
 Total                  232.380             70.620            137.780
 Electronic               0.000              0.000              0.000
 Translational            0.889              2.981             43.667
 Rotational               0.889              2.981             35.567
 Vibrational            230.603             64.659             58.547
 Vibration     1          0.592              1.987             12.253
 Vibration     2          0.601              1.960              3.796
 Vibration     3          0.606              1.942              3.282
 Vibration     4          0.611              1.925              2.979
 Vibration     5          0.614              1.915              2.828
 Vibration     6          0.617              1.905              2.705
 Vibration     7          0.645              1.816              1.988
 Vibration     8          0.651              1.798              1.892
 Vibration     9          0.653              1.793              1.866
 Vibration    10          0.656              1.784              1.826
 Vibration    11          0.670              1.741              1.644
 Vibration    12          0.678              1.717              1.556
 Vibration    13          0.685              1.697              1.489
 Vibration    14          0.730              1.568              1.150
 Vibration    15          0.739              1.543              1.098
 Vibration    16          0.740              1.539              1.090
 Vibration    17          0.761              1.484              0.987
 Vibration    18          0.776              1.445              0.921
 Vibration    19          0.781              1.431              0.899
 Vibration    20          0.794              1.397              0.847
 Vibration    21          0.829              1.312              0.731
 Vibration    22          0.838              1.290              0.705
 Vibration    23          0.872              1.212              0.617
 Vibration    24          0.879              1.197              0.601
 Vibration    25          0.911              1.127              0.532
 Vibration    26          0.922              1.104              0.511
 Vibration    27          0.925              1.098              0.506
 Vibration    28          0.941              1.066              0.478
 Vibration    29          0.962              1.025              0.444

 Normal termination of Gaussian 16 at Mon Mar  6 12:36:44 2023.
