 Gaussian 16, Revision C.01,
 Gaussian 16:  ES64L-G16RevC.01  3-Jul-2019

 ----------------------------------------------------------------------
 #p pop=(regular,nbo,savenbos) freq=noraman def2svp empiricaldispersion
 =gd3bj output=wfx pbe1pbe
 ----------------------------------------------------------------------

 ----------------------------------------
 YIGWOB_Complex_5_Ligand_2_ON_Cu_oriented
 ----------------------------------------
 Symbolic Z-matrix:
 Charge = -1 Multiplicity = 1

                         Standard orientation:
 ---------------------------------------------------------------------
 Center     Atomic      Atomic             Coordinates (Angstroms)
 Number     Number       Type             X           Y           Z
 ---------------------------------------------------------------------
      1          6           0        1.773773    1.394093   -0.392224
      2          1           0        1.328426    2.149365   -0.701022
      3          6           0        3.078695    1.480541    0.083311
      4          1           0        3.497361    2.309848    0.104063
      5          6           0        3.764997    0.374265    0.522265
      6          1           0        4.637588    0.466569    0.826531
      7          6           0        3.173076   -0.870389    0.517626
      8          1           0        3.637210   -1.616123    0.821048
      9          6           0        1.847509   -0.992407    0.044775
     10          6           0        1.147964    0.146510   -0.395576
     11          6           0       -0.155629   -0.309100   -0.812116
     12          6           0       -0.168768   -1.657225   -0.594355
     13          1           0       -0.891501   -2.215522   -0.768527
     14          6           0       -1.297119    0.509179   -1.364385
     15          1           0       -1.768263   -0.025555   -2.021432
     16          1           0       -0.929195    1.279164   -1.824412
     17          6           0       -2.310535    1.003839   -0.320705
     18          1           0       -3.060552    1.439256   -0.778107
     19          6           0       -2.832869   -0.192727    0.480882
     20          7           0       -1.676935    1.967582    0.610577
     21          1           0       -2.284030    2.556491    0.916521
     22          1           0       -1.018401    2.421160    0.196538
     23          7           0        1.026989   -2.066117   -0.086761
     24          1           0        1.230905   -2.875777    0.118365
     25          8           0       -3.647036   -0.963306   -0.040527
     26          8           0       -2.347525   -0.351519    1.643868
 ---------------------------------------------------------------------

 SCF Done:  E(RPBE1PBE) =  -684.319368125     A.U. after   17 cycles

 The electronic state is 1-A.
 Alpha  occ. eigenvalues --  -18.92374 -18.90915 -14.30816 -14.17930 -10.14795
 Alpha  occ. eigenvalues --  -10.11833 -10.11265 -10.10647 -10.10481 -10.10425
 Alpha  occ. eigenvalues --  -10.09952 -10.09385 -10.08435 -10.07229 -10.07138
 Alpha  occ. eigenvalues --   -0.90216  -0.81792  -0.76047  -0.75701  -0.71066
 Alpha  occ. eigenvalues --   -0.70318  -0.65725  -0.64730  -0.61772  -0.55457
 Alpha  occ. eigenvalues --   -0.52035  -0.50868  -0.47996  -0.45887  -0.41382
 Alpha  occ. eigenvalues --   -0.39635  -0.37963  -0.35707  -0.34824  -0.33993
 Alpha  occ. eigenvalues --   -0.32728  -0.32421  -0.30283  -0.27773  -0.27235
 Alpha  occ. eigenvalues --   -0.26145  -0.24808  -0.24352  -0.22971  -0.21606
 Alpha  occ. eigenvalues --   -0.17875  -0.17396  -0.16441  -0.12492  -0.09332
 Alpha  occ. eigenvalues --   -0.08567  -0.03112  -0.02941  -0.00520
 Alpha virt. eigenvalues --    0.10026   0.13920   0.18888   0.19189   0.20164
 Alpha virt. eigenvalues --    0.21446   0.23560   0.25160   0.25478   0.26778
 Alpha virt. eigenvalues --    0.27464   0.29547   0.30574   0.31773   0.32458

 Mulliken charges:
               1
     1  C    0.061658
     2  H   -0.143335
     3  C    0.083336
     4  H   -0.126498
     5  C    0.089792
     6  H   -0.124827
     7  C    0.045657
     8  H   -0.150878
     9  C    0.071061
    10  C    0.021586
    11  C   -0.159554
    12  C    0.207900
    13  H   -0.100267
    14  C    0.273145
    15  H   -0.053220
    16  H   -0.071750
    17  C   -0.014264
    18  H   -0.071328
    19  C    0.091162
    20  N   -0.077852
    21  H    0.022790
    22  H    0.002061
    23  N   -0.020243
    24  H    0.018701
    25  O   -0.433573
    26  O   -0.441259
 Sum of Mulliken charges =  -1.00000

 Dipole moment (field-independent basis, Debye):
    X=             10.4458    Y=              1.4380    Z=             -4.2836  Tot=             11.3812
 Quadrupole moment (field-independent basis, Debye-Ang):
   XX=           -133.2569   YY=            -78.9004   ZZ=           -100.1228
   XY=            -15.7499   XZ=             11.4203   YZ=             -0.4932

  Exact polarizability:     153.659      11.764     126.797      19.267      -2.209      84.187
 Approx polarizability:     220.003      28.272     219.310      39.450      -5.652     136.077

 Summary of Natural Population Analysis:

                                       Natural Population
                Natural  -----------------------------------------------
    Atom  No    Charge         Core      Valence    Rydberg      Total
 -----------------------------------------------------------------------
      C    1   -0.15632      1.99903     4.14224    0.01504     6.15632
      H    2    0.16626      0.00000     0.83043    0.00331     0.83374
      C    3   -0.21048      1.99911     4.19635    0.01501     6.21048
      H    4    0.15863      0.00000     0.83817    0.00320     0.84137
      C    5   -0.20526      1.99911     4.19120    0.01495     6.20526
      H    6    0.16026      0.00000     0.83658    0.00316     0.83974
      C    7   -0.21805      1.99905     4.20426    0.01474     6.21805
      H    8    0.16369      0.00000     0.83319    0.00312     0.83631
      C    9    0.17363      1.99891     3.80678    0.02069     5.82637
      C   10   -0.08676      1.99889     4.07056    0.01731     6.08676
      C   11   -0.07706      1.99899     4.05501    0.02306     6.07706
      C   12    0.06805      1.99894     3.91225    0.02076     5.93195
      H   13    0.17524      0.00000     0.82073    0.00403     0.82476
      C   14   -0.39248      1.99899     4.37791    0.01558     6.39248
      H   15    0.20491      0.00000     0.78841    0.00668     0.79509
      H   16    0.17576      0.00000     0.81872    0.00552     0.82424
      C   17   -0.08820      1.99894     4.06631    0.02295     6.08820
      H   18    0.15534      0.00000     0.83801    0.00665     0.84466
      C   19    0.76658      1.99944     3.15663    0.07735     5.23342
      N   20   -0.80081      1.99940     5.77809    0.02331     7.80081
      H   21    0.31249      0.00000     0.68119    0.00633     0.68751
      H   22    0.29953      0.00000     0.69361    0.00686     0.70047
      N   23   -0.51046      1.99914     5.49884    0.01248     7.51046
      H   24    0.34982      0.00000     0.64510    0.00508     0.65018
      O   25   -0.80267      1.99973     6.79290    0.01003     8.80267
      O   26   -0.78163      1.99976     6.77301    0.00887     8.78163
 =======================================================================
   * Total *   -1.00000     29.98741    77.64650    0.36609   108.00000

 ******   21 imaginary frequencies (negative Signs) ******

                      1                      2                      3
                      A                      A                      A
 Frequencies --  -1873.8161             -1578.0068             -1480.9838
 Red. masses --      1.0848                 1.0376                 1.0839
 Frc consts  --      2.2441                 1.5223                 1.4006
 IR Inten    --     88.3423                68.3111                68.3238

                      4                      5                      6
                      A                      A                      A
 Frequencies --  -1410.2629             -1402.1396             -1388.8849
 Red. masses --      1.1182                 1.0658                 1.0761
 Frc consts  --      1.3103                 1.2346                 1.2230
 IR Inten    --    121.3650                14.0559                13.2069

                      7                      8                      9
                      A                      A                      A
 Frequencies --  -1312.4610             -1227.6105             -1225.7827
 Red. masses --      1.0341                 1.0505                 1.0429
 Frc consts  --      1.0496                 0.9328                 0.9233
 IR Inten    --      1.3908                20.5645                 0.1362

                     10                     11                     12
                      A                      A                      A
 Frequencies --  -1109.2529              -980.4798              -966.2282
 Red. masses --      1.0331                 1.0677                 1.0686
 Frc consts  --      0.7489                 0.6048                 0.5878
 IR Inten    --      1.9450                 0.7434                 0.0265

                     13                     14                     15
                      A                      A                      A
 Frequencies --   -938.9846              -891.3899              -817.3175
 Red. masses --      1.1210                 1.0497                 1.0770
 Frc consts  --      0.5823                 0.4914                 0.4239
 IR Inten    --      0.5544                 9.6340                10.5805

                     16                     17                     18
                      A                      A                      A
 Frequencies --   -754.4478              -511.3704              -396.8812
 Red. masses --      1.0981                 1.2561                 1.4542
 Frc consts  --      0.3683                 0.1935                 0.1350
 IR Inten    --      5.5328                 1.3675                 3.4137

                     19                     20                     21
                      A                      A                      A
 Frequencies --   -376.0493              -259.8082               -96.2459
 Red. masses --      1.6258                 2.7613                14.3508
 Frc consts  --      0.1355                 0.1098                 0.0783
 IR Inten    --      2.3682                 0.1718                 0.1550

                     22                     23                     24
                      A                      A                      A
 Frequencies --    109.3029               165.2664               255.5480
 Red. masses --      8.3355                 8.0402                 7.8623
 Frc consts  --      0.0587                 0.1294                 0.3025
 IR Inten    --      8.9129                26.5193                 0.8767

                     25                     26                     27
                      A                      A                      A
 Frequencies --    302.4546               341.3409               421.9680
 Red. masses --      9.9712                 5.3725                 2.6633
 Frc consts  --      0.5374                 0.3688                 0.2794
 IR Inten    --      0.4187                 0.9388                 4.1747

                     28                     29                     30
                      A                      A                      A
 Frequencies --    454.6709               472.0124               535.3605
 Red. masses --      5.1893                 5.0999                 4.2569
 Frc consts  --      0.6321                 0.6695                 0.7188
 IR Inten    --      1.7336                 1.9961                 3.2689

                     31                     32                     33
                      A                      A                      A
 Frequencies --    552.2340               618.8187               639.8399
 Red. masses --      9.1190                 5.4627                 7.1371
 Frc consts  --      1.6385                 1.2325                 1.7215
 IR Inten    --      0.2774                 0.6584                 3.0764

                     34                     35                     36
                      A                      A                      A
 Frequencies --    643.8148               698.6636               737.9613
 Red. masses --      6.3970                 5.0054                 4.0073
 Frc consts  --      1.5622                 1.4395                 1.2858
 IR Inten    --      5.2028                 5.9227                 1.6774

                     37                     38                     39
                      A                      A                      A
 Frequencies --    767.1246               769.1198               791.8946
 Red. masses --      5.5533                 2.6343                 5.9349
 Frc consts  --      1.9255                 0.9181                 2.1928
 IR Inten    --      5.7569                29.2454                 8.9311

                     40                     41                     42
                      A                      A                      A
 Frequencies --    839.3285               853.4035               875.4159
 Red. masses --      5.7298                 5.3394                 6.6481
 Frc consts  --      2.3782                 2.2912                 3.0018
 IR Inten    --      7.3052                 1.8859                18.5549

                     43                     44                     45
                      A                      A                      A
 Frequencies --    880.0705               937.0495               961.2578
 Red. masses --      4.5186                 2.1488                 5.9403
 Frc consts  --      2.0620                 1.1117                 3.2340
 IR Inten    --      1.9479                 1.4769                 0.7299

                     46                     47                     48
                      A                      A                      A
 Frequencies --    963.2825              1053.5727              1130.7229
 Red. masses --      1.1999                 1.9631                 6.3919
 Frc consts  --      0.6560                 1.2839                 4.8149
 IR Inten    --     17.6487                16.7131                25.7399

                     49                     50                     51
                      A                      A                      A
 Frequencies --   1155.3189              1165.6564              1271.3334
 Red. masses --      4.9234                 6.4008                 7.7606
 Frc consts  --      3.8719                 5.1242                 7.3904
 IR Inten    --     12.2808                 2.8161                13.8933

                     52                     53                     54
                      A                      A                      A
 Frequencies --   1327.5650              1389.0501              1447.6178
 Red. masses --      8.3706                 8.3026                11.9716
 Frc consts  --      8.6919                 9.4384                14.7812
 IR Inten    --     32.2825                11.0199               171.6783

                     55                     56                     57
                      A                      A                      A
 Frequencies --   1476.8473              1490.3953              1509.9127
 Red. masses --      9.3933                 9.2200                10.5715
 Frc consts  --     12.0710                12.0665                14.2001
 IR Inten    --      8.5149                14.6338                56.0417

                     58                     59                     60
                      A                      A                      A
 Frequencies --   1613.6631              1656.5766              1693.4202
 Red. masses --     10.4117                11.1732                10.3523
 Frc consts  --     15.9734                18.0656                17.4911
 IR Inten    --      3.5787                 4.5587                 5.2962

                     61                     62                     63
                      A                      A                      A
 Frequencies --   1778.7811              4340.6809              4427.5438
 Red. masses --     12.6237                 1.0868                 1.0607
 Frc consts  --     23.5333                12.0641                12.2514
 IR Inten    --    429.7068                49.9190                25.0057

                     64                     65                     66
                      A                      A                      A
 Frequencies --   4547.8696              5030.8315              5037.4543
 Red. masses --      1.1073                 1.0863                 1.0880
 Frc consts  --     13.4937                16.1987                16.2666
 IR Inten    --      6.6149                 1.1170                 1.9803

                     67                     68                     69
                      A                      A                      A
 Frequencies --   5043.9224              5052.9321              5060.5465
 Red. masses --      1.0899                 1.0920                 1.0920
 Frc consts  --     16.3371                16.4269                16.4762
 IR Inten    --      4.4067                 4.6187                 9.3956

                     70                     71                     72
                      A                      A                      A
 Frequencies --   5104.1246              5247.7328              5878.9749
 Red. masses --      1.0501                 1.0955                 1.0780
 Frc consts  --     16.1186                17.7741                21.9525
 IR Inten    --      2.9384                 5.1705                90.6250

 - Thermochemistry -
 -------------------
 Temperature   298.150 Kelvin.  Pressure   1.00000 Atm.
 Atom     1 has atomic number  6 and mass  12.00000

 Molecular mass:   203.08205 amu.
 Principal axes and moments of inertia in atomic units:
                           1         2         3
     Eigenvalues --  1442.127084340.269025006.50009
           X            0.99988  -0.00969   0.01236
           Y            0.00980   0.99991  -0.00863
           Z           -0.01227   0.00875   0.99989
 This molecule is an asymmetric top.
 Rotational symmetry number  1.
 Warning -- assumption of classical behavior for rotation
           may cause significant error
 Rotational temperatures (Kelvin)      0.06006     0.01996     0.01730
 Rotational constants (GHZ):           1.25144     0.41581     0.36048
   21 imaginary frequencies ignored.
 Zero-point vibrational energy     547412.7 (Joules/Mol)
                                  130.83477 (Kcal/Mol)
 Warning -- explicit consideration of  11 degrees of freedom as
           vibrations may cause significant error
 Vibrational temperatures:    157.26   237.78   367.68   435.16   491.11
          (Kelvin)            607.12   654.17   679.12   770.26   794.54
                              890.34   920.59   926.31  1005.22  1061.76
                             1103.72  1106.59  1139.36  1207.61  1227.86
                             1259.53  1266.23  1348.21  1383.04  1385.95
                             1515.86  1626.86  1662.25  1677.12  1829.17
                             1910.07  1998.53  2082.80  2124.85  2144.35
                             2172.43  2321.70  2383.44  2436.45  2559.27
                             6245.27  6370.25  6543.37  7238.24  7247.77
                             7257.08  7270.04  7281.00  7343.70  7550.32
                             8458.53

 Zero-point correction=                           0.208498 (Hartree/Particle)
 Thermal correction to Energy=                    0.216543
 Thermal correction to Enthalpy=                  0.217487
 Thermal correction to Gibbs Free Energy=         0.174233
 Sum of electronic and zero-point Energies=           -684.110870
 Sum of electronic and thermal Energies=              -684.102826
 Sum of electronic and thermal Enthalpies=            -684.101881
 Sum of electronic and thermal Free Energies=         -684.145135

                     E (Thermal)             CV                S
                      KCal/Mol        Cal/Mol-Kelvin    Cal/Mol-Kelvin
 Total                  135.883             33.177             91.035
 Electronic               0.000              0.000              0.000
 Translational            0.889              2.981             41.830
 Rotational               0.889              2.981             31.816
 Vibrational            134.105             27.216             17.389
 Vibration     1          0.606              1.942              3.281
 Vibration     2          0.624              1.885              2.489
 Vibration     3          0.666              1.753              1.692
 Vibration     4          0.694              1.669              1.403
 Vibration     5          0.721              1.593              1.206
 Vibration     6          0.784              1.422              0.885
 Vibration     7          0.813              1.351              0.782
 Vibration     8          0.829              1.312              0.732
 Vibration     9          0.890              1.172              0.575
 Vibration    10          0.908              1.135              0.540
 Vibration    11          0.979              0.992              0.418

 Normal termination of Gaussian 16 at Mon Mar  6 10:47:15 2023.
