 Gaussian 16, Revision C.01,
 Gaussian 16:  ES64L-G16RevC.01  3-Jul-2019

 ----------------------------------------------------------------------
 #p pop=(regular,nbo,savenbos) freq=noraman def2svp empiricaldispersion
 =gd3bj output=wfx pbe1pbe
 ----------------------------------------------------------------------

 -----------------------------------------
 YUHCEK_Complex_10_Ligand_1_NN_Cu_oriented
 -----------------------------------------
 Symbolic Z-matrix:
 Charge =  0 Multiplicity = 1

                         Standard orientation:
 ---------------------------------------------------------------------
 Center     Atomic      Atomic             Coordinates (Angstroms)
 Number     Number       Type             X           Y           Z
 ---------------------------------------------------------------------
      1          8           0        2.831471    0.648962   -2.783775
      2          8           0        2.686235   -0.686848    2.889969
      3          7           0       -2.793531    1.282304    0.116887
      4          7           0       -2.774527   -1.326478    0.047386
      5          7           0        1.505433   -0.745987   -1.511866
      6          1           0        1.444437   -1.420767   -2.075183
      7          7           0        1.847560    1.320290   -0.809698
      8          1           0        2.168504    2.139139   -0.786593
      9          7           0        1.825822   -1.303570    0.844732
     10          1           0        2.157338   -2.118803    0.816047
     11          7           0        1.502714    0.773071    1.534791
     12          1           0        1.474958    1.458860    2.085927
     13          6           0       -2.897264    2.616358    0.103592
     14          6           0       -1.777501    3.432235    0.131811
     15          1           0       -1.876141    4.377025    0.118503
     16          6           0       -0.516106    2.868729    0.180011
     17          1           0        0.258095    3.418189    0.216765
     18          6           0       -0.402917    1.472138    0.173066
     19          6           0       -1.564834    0.723488    0.133638
     20          6           0       -1.564022   -0.742538    0.027501
     21          6           0       -0.391570   -1.453925   -0.162310
     22          6           0       -0.487370   -2.834740   -0.378534
     23          1           0        0.293896   -3.355340   -0.519589
     24          6           0       -1.735912   -3.426400   -0.381878
     25          1           0       -1.823001   -4.360348   -0.534059
     26          6           0       -2.865122   -2.646322   -0.161321
     27          1           0       -3.720521   -3.059610   -0.159533
     28          6           0        0.948114   -0.753458   -0.181009
     29          6           0        0.950866    0.782913    0.197350
     30          6           0        2.137054    0.427439   -1.793200
     31          6           0        2.074160   -0.430466    1.837719
     32          1           0       -3.758967    3.014630    0.073924
 ---------------------------------------------------------------------

 SCF Done:  E(RPBE1PBE) =  -1016.51848032     A.U. after   15 cycles

 The electronic state is 1-A.
 Alpha  occ. eigenvalues --  -19.17390 -19.16908 -14.42562 -14.42397 -14.42394
 Alpha  occ. eigenvalues --  -14.42331 -14.40167 -14.40144 -10.36770 -10.36548
 Alpha  occ. eigenvalues --  -10.36299 -10.36249 -10.29542 -10.29516 -10.28020
 Alpha  occ. eigenvalues --  -10.27998 -10.27550 -10.27441 -10.26897 -10.26890
 Alpha  occ. eigenvalues --  -10.25313 -10.25212  -1.10645  -1.07196  -1.01674
 Alpha  occ. eigenvalues --   -0.99488  -0.98573  -0.97100  -0.96824  -0.92879
 Alpha  occ. eigenvalues --   -0.86815  -0.85097  -0.85044  -0.79986  -0.77675
 Alpha  occ. eigenvalues --   -0.73363  -0.71248  -0.70500  -0.69694  -0.68441
 Alpha  occ. eigenvalues --   -0.66313  -0.63932  -0.60231  -0.59646  -0.57447
 Alpha  occ. eigenvalues --   -0.56616  -0.55876  -0.55703  -0.55521  -0.54267
 Alpha  occ. eigenvalues --   -0.51528  -0.50193  -0.49928  -0.46463  -0.46376
 Alpha  occ. eigenvalues --   -0.46109  -0.45847  -0.45133  -0.45006  -0.43238
 Alpha  occ. eigenvalues --   -0.42845  -0.42433  -0.42380  -0.39753  -0.33953
 Alpha  occ. eigenvalues --   -0.32734  -0.32300  -0.32124  -0.30115  -0.29629
 Alpha  occ. eigenvalues --   -0.28760  -0.28478  -0.27792  -0.27300  -0.26691
 Alpha  occ. eigenvalues --   -0.26234
 Alpha virt. eigenvalues --   -0.07362  -0.05609  -0.04000   0.00723   0.04872
 Alpha virt. eigenvalues --    0.05221   0.05819   0.06920   0.09395   0.09896
 Alpha virt. eigenvalues --    0.10348   0.10968   0.12716   0.12893   0.14018

 Mulliken charges:
               1
     1  O   -0.281423
     2  O   -0.299669
     3  N   -0.137411
     4  N   -0.130601
     5  N   -0.116559
     6  H    0.063091
     7  N   -0.131219
     8  H    0.066503
     9  N   -0.111081
    10  H    0.066164
    11  N   -0.115940
    12  H    0.062334
    13  C    0.196785
    14  C    0.039254
    15  H   -0.060125
    16  C    0.113816
    17  H   -0.087165
    18  C    0.060210
    19  C    0.001988
    20  C    0.007174
    21  C    0.064583
    22  C    0.109730
    23  H   -0.084231
    24  C    0.040158
    25  H   -0.059680
    26  C    0.196202
    27  H   -0.049134
    28  C    0.008434
    29  C    0.049829
    30  C    0.285186
    31  C    0.282682
    32  H   -0.049886
 Sum of Mulliken charges =  -0.00000

 Dipole moment (field-independent basis, Debye):
    X=             -2.4064    Y=              0.1445    Z=             -0.6932  Tot=              2.5084
 Quadrupole moment (field-independent basis, Debye-Ang):
   XX=           -142.7762   YY=            -89.6981   ZZ=           -145.9908
   XY=              0.0076   XZ=              0.9426   YZ=             11.5252

  Exact polarizability:     180.119      -0.004     210.915      -0.389       4.455     119.004
 Approx polarizability:     287.013       0.373     326.835      -2.505       8.789     186.944

 Summary of Natural Population Analysis:

                                       Natural Population
                Natural  -----------------------------------------------
    Atom  No    Charge         Core      Valence    Rydberg      Total
 -----------------------------------------------------------------------
      O    1   -0.65350      1.99974     6.64410    0.00966     8.65350
      O    2   -0.66260      1.99975     6.65370    0.00915     8.66260
      N    3   -0.43179      1.99931     5.41585    0.01663     7.43179
      N    4   -0.43174      1.99930     5.41584    0.01660     7.43174
      N    5   -0.66015      1.99908     5.64337    0.01769     7.66015
      H    6    0.38137      0.00000     0.61433    0.00430     0.61863
      N    7   -0.65971      1.99909     5.64221    0.01840     7.65971
      H    8    0.37823      0.00000     0.61751    0.00426     0.62177
      N    9   -0.65436      1.99909     5.63646    0.01881     7.65436
      H   10    0.38042      0.00000     0.61529    0.00429     0.61958
      N   11   -0.65787      1.99909     5.64085    0.01793     7.65787
      H   12    0.38126      0.00000     0.61443    0.00431     0.61874
      C   13    0.11786      1.99912     3.86270    0.02032     5.88214
      C   14   -0.19593      1.99911     4.18370    0.01312     6.19593
      H   15    0.18605      0.00000     0.81083    0.00312     0.81395
      C   16   -0.14108      1.99903     4.12651    0.01554     6.14108
      H   17    0.18308      0.00000     0.81379    0.00313     0.81692
      C   18   -0.08116      1.99885     4.06272    0.01959     6.08116
      C   19    0.20079      1.99879     3.77334    0.02707     5.79921
      C   20    0.20202      1.99878     3.77195    0.02725     5.79798
      C   21   -0.07829      1.99885     4.05994    0.01949     6.07829
      C   22   -0.14495      1.99903     4.13031    0.01561     6.14495
      H   23    0.18215      0.00000     0.81469    0.00316     0.81785
      C   24   -0.19476      1.99911     4.18255    0.01310     6.19476
      H   25    0.18624      0.00000     0.81065    0.00310     0.81376
      C   26    0.11862      1.99913     3.86195    0.02030     5.88138
      H   27    0.16419      0.00000     0.83297    0.00285     0.83581
      C   28    0.34479      1.99887     3.62891    0.02744     5.65521
      C   29    0.34493      1.99888     3.62867    0.02752     5.65507
      C   30    0.86782      1.99933     3.08097    0.05188     5.13218
      C   31    0.86385      1.99931     3.08543    0.05141     5.13615
      H   32    0.16421      0.00000     0.83294    0.00286     0.83579
 =======================================================================
   * Total *   -0.00000     43.98065   107.50945    0.50990   152.00000

 ******   20 imaginary frequencies (negative Signs) ******

                      1                      2                      3
                      A                      A                      A
 Frequencies --  -1738.6426             -1719.6855             -1713.2250
 Red. masses --      1.0778                 1.0739                 1.0871
 Frc consts  --      1.9196                 1.8711                 1.8800
 IR Inten    --      6.0597                12.0332               119.1230

                      4                      5                      6
                      A                      A                      A
 Frequencies --  -1690.0225             -1237.8549             -1236.0547
 Red. masses --      1.0795                 1.0711                 1.0819
 Frc consts  --      1.8165                 0.9670                 0.9739
 IR Inten    --    367.9227                47.9813                22.6713

                      7                      8                      9
                      A                      A                      A
 Frequencies --  -1116.0374             -1112.1934             -1020.7557
 Red. masses --      1.0206                 1.0283                 1.0229
 Frc consts  --      0.7490                 0.7494                 0.6279
 IR Inten    --      0.0300                 0.0584                 0.0322

                     10                     11                     12
                      A                      A                      A
 Frequencies --  -1018.6602             -1013.9661              -996.1865
 Red. masses --      1.0238                 1.0592                 1.0455
 Frc consts  --      0.6259                 0.6416                 0.6113
 IR Inten    --      0.0786                13.2994                 1.2906

                     13                     14                     15
                      A                      A                      A
 Frequencies --   -966.2589              -952.3882              -651.3218
 Red. masses --      1.0607                 1.0568                 1.1449
 Frc consts  --      0.5835                 0.5648                 0.2862
 IR Inten    --     18.9566                19.9607                 2.4550

                     16                     17                     18
                      A                      A                      A
 Frequencies --   -646.5239              -525.7148              -500.7557
 Red. masses --      1.1462                 1.2199                 1.1812
 Frc consts  --      0.2823                 0.1986                 0.1745
 IR Inten    --      2.1868                 8.5177                18.6177

                     19                     20                     21
                      A                      A                      A
 Frequencies --   -413.1880              -382.5656                89.5686
 Red. masses --      1.2949                 1.3499                 9.2825
 Frc consts  --      0.1303                 0.1164                 0.0439
 IR Inten    --      4.9804                 3.5941                 1.2849

                     22                     23                     24
                      A                      A                      A
 Frequencies --    122.2014               130.0490               175.4110
 Red. masses --     12.3417                11.9809                 9.7163
 Frc consts  --      0.1086                 0.1194                 0.1761
 IR Inten    --      3.7682                 6.2358                 0.2753

                     25                     26                     27
                      A                      A                      A
 Frequencies --    190.4422               244.5761               255.7523
 Red. masses --     10.2715                 8.6602                11.0969
 Frc consts  --      0.2195                 0.3052                 0.4277
 IR Inten    --      0.1828                 2.3256                 0.1250

                     28                     29                     30
                      A                      A                      A
 Frequencies --    307.8070               340.9612               346.2221
 Red. masses --      8.6290                 7.3949                 7.7504
 Frc consts  --      0.4817                 0.5065                 0.5474
 IR Inten    --      0.2284                 1.1558                 6.9457

                     31                     32                     33
                      A                      A                      A
 Frequencies --    403.0593               404.3894               415.7464
 Red. masses --      8.9332                 9.0880                 7.8023
 Frc consts  --      0.8551                 0.8756                 0.7946
 IR Inten    --      0.1317                 0.4090                 0.7973

                     34                     35                     36
                      A                      A                      A
 Frequencies --    432.4346               478.0820               542.1451
 Red. masses --      9.2264                 8.7394                11.7037
 Frc consts  --      1.0165                 1.1769                 2.0268
 IR Inten    --      8.1293                 0.8989                 3.5377

                     37                     38                     39
                      A                      A                      A
 Frequencies --    550.3898               578.5855               631.6387
 Red. masses --      8.1872                11.8578                 6.1353
 Frc consts  --      1.4613                 2.3388                 1.4422
 IR Inten    --      0.1755                 0.0196                 3.8716

                     40                     41                     42
                      A                      A                      A
 Frequencies --    632.7543               692.4375               707.0001
 Red. masses --      4.7091                10.8799                 4.8155
 Frc consts  --      1.1109                 3.0735                 1.4182
 IR Inten    --      2.5369                 0.0653                 1.2454

                     43                     44                     45
                      A                      A                      A
 Frequencies --    738.4878               751.8607               772.1677
 Red. masses --      4.0467                 5.5013                 7.9545
 Frc consts  --      1.3003                 1.8323                 2.7944
 IR Inten    --      2.6082                 4.3892                 3.4812

                     46                     47                     48
                      A                      A                      A
 Frequencies --    773.7883               790.5886               794.6765
 Red. masses --      6.0200                10.4775                 9.1885
 Frc consts  --      2.1237                 3.8584                 3.4188
 IR Inten    --      2.0415                 3.1397                11.6976

                     49                     50                     51
                      A                      A                      A
 Frequencies --    803.1176               833.4213               847.4882
 Red. masses --      9.4610                 9.8640                 7.3249
 Frc consts  --      3.5954                 4.0368                 3.0997
 IR Inten    --      4.0277                25.8325                54.0431

                     52                     53                     54
                      A                      A                      A
 Frequencies --    863.2207               892.3590               895.8475
 Red. masses --     10.4733                11.1925                 5.5867
 Frc consts  --      4.5981                 5.2512                 2.6416
 IR Inten    --      7.2407                 0.4586                 6.3195

                     55                     56                     57
                      A                      A                      A
 Frequencies --   1001.5533              1007.0196              1078.1982
 Red. masses --      8.8403                 8.5042                 7.9290
 Frc consts  --      5.2248                 5.0811                 5.4308
 IR Inten    --     38.8189                 8.7744                 2.3953

                     58                     59                     60
                      A                      A                      A
 Frequencies --   1095.9501              1131.9698              1166.6892
 Red. masses --      8.6958                 9.6670                11.3635
 Frc consts  --      6.1538                 7.2982                 9.1132
 IR Inten    --      5.8198                 3.7083                23.4847

                     61                     62                     63
                      A                      A                      A
 Frequencies --   1194.4195              1221.7779              1230.5672
 Red. masses --     10.1844                10.5812                10.9792
 Frc consts  --      8.5605                 9.3062                 9.7956
 IR Inten    --     43.1664                78.9540               202.4638

                     64                     65                     66
                      A                      A                      A
 Frequencies --   1251.0268              1282.6444              1297.7316
 Red. masses --     10.1998                 9.4797                 8.4701
 Frc consts  --      9.4054                 9.1887                 8.4044
 IR Inten    --     32.3684                10.7055                16.8811

                     67                     68                     69
                      A                      A                      A
 Frequencies --   1323.4727              1346.3694              1381.5801
 Red. masses --     10.0865                 9.9787                 9.6367
 Frc consts  --     10.4092                10.6574                10.8375
 IR Inten    --      4.0610                 1.3704                 2.8520

                     70                     71                     72
                      A                      A                      A
 Frequencies --   1421.5786              1458.5790              1468.7486
 Red. masses --     10.2120                 9.9561                 9.7083
 Frc consts  --     12.1591                12.4796                12.3392
 IR Inten    --      7.3729                30.5497                20.2199

                     73                     74                     75
                      A                      A                      A
 Frequencies --   1494.3626              1547.7519              1619.3751
 Red. masses --     10.6962                10.5373                11.3340
 Frc consts  --     14.0732                14.8725                17.5116
 IR Inten    --      3.6694               298.1575                20.8144

                     76                     77                     78
                      A                      A                      A
 Frequencies --   1628.1586              1670.6019              1687.8986
 Red. masses --     11.3168                11.1746                11.2690
 Frc consts  --     17.6753                18.3750                18.9160
 IR Inten    --    127.8799                12.9470                27.1795

                     79                     80                     81
                      A                      A                      A
 Frequencies --   1739.0265              1800.7621              4766.3709
 Red. masses --     12.3093                12.4454                 1.0878
 Frc consts  --     21.9328                23.7778                14.5601
 IR Inten    --    761.8373               676.9706                 0.4764

                     82                     83                     84
                      A                      A                      A
 Frequencies --   4767.2120              4775.8881              4778.9979
 Red. masses --      1.0879                 1.0904                 1.0898
 Frc consts  --     14.5663                14.6531                14.6647
 IR Inten    --      0.8458                 0.7651                 0.7659

                     85                     86                     87
                      A                      A                      A
 Frequencies --   4783.3081              4784.7475              5518.3200
 Red. masses --      1.0926                 1.0921                 1.0782
 Frc consts  --     14.7282                14.7310                19.3442
 IR Inten    --      0.1517                 0.5632                88.2643

                     88                     89                     90
                      A                      A                      A
 Frequencies --   5528.5909              5534.5724              5541.3639
 Red. masses --      1.0778                 1.0786                 1.0781
 Frc consts  --     19.4091                19.4654                19.5049
 IR Inten    --    128.9263                53.6758                88.8004

 - Thermochemistry -
 -------------------
 Temperature   298.150 Kelvin.  Pressure   1.00000 Atm.
 Atom     1 has atomic number  8 and mass  15.99491

 Molecular mass:   294.08652 amu.
 Principal axes and moments of inertia in atomic units:
                           1         2         3
     Eigenvalues --  4943.261685625.417887441.61664
           X            1.00000  -0.00088   0.00158
           Y            0.00085   0.99986   0.01678
           Z           -0.00159  -0.01678   0.99986
 This molecule is an asymmetric top.
 Rotational symmetry number  1.
 Warning -- assumption of classical behavior for rotation
           may cause significant error
 Rotational temperatures (Kelvin)      0.01752     0.01540     0.01164
 Rotational constants (GHZ):           0.36509     0.32082     0.24252
   20 imaginary frequencies ignored.
 Zero-point vibrational energy     626579.2 (Joules/Mol)
                                  149.75602 (Kcal/Mol)
 Warning -- explicit consideration of  18 degrees of freedom as
           vibrations may cause significant error
 Vibrational temperatures:    128.87   175.82   187.11   252.38   274.00
          (Kelvin)            351.89   367.97   442.87   490.57   498.14
                              579.91   581.83   598.17   622.18   687.85
                              780.03   791.89   832.46   908.79   910.39
                              996.26  1017.22  1062.52  1081.76  1110.98
                             1113.31  1137.48  1143.36  1155.51  1199.11
                             1219.35  1241.98  1283.91  1288.92  1441.01
                             1448.88  1551.29  1576.83  1628.65  1678.61
                             1718.50  1757.87  1770.51  1799.95  1845.44
                             1867.15  1904.18  1937.13  1987.79  2045.33
                             2098.57  2113.20  2150.05  2226.87  2329.92
                             2342.56  2403.62  2428.51  2502.07  2590.90
                             6857.74  6858.95  6871.44  6875.91  6882.11
                             6884.18  7939.63  7954.41  7963.02  7972.79

 Zero-point correction=                           0.238651 (Hartree/Particle)
 Thermal correction to Energy=                    0.250630
 Thermal correction to Enthalpy=                  0.251574
 Thermal correction to Gibbs Free Energy=         0.199928
 Sum of electronic and zero-point Energies=          -1016.279829
 Sum of electronic and thermal Energies=             -1016.267850
 Sum of electronic and thermal Enthalpies=           -1016.266906
 Sum of electronic and thermal Free Energies=        -1016.318552

                     E (Thermal)             CV                S
                      KCal/Mol        Cal/Mol-Kelvin    Cal/Mol-Kelvin
 Total                  157.273             49.366            108.698
 Electronic               0.000              0.000              0.000
 Translational            0.889              2.981             42.933
 Rotational               0.889              2.981             33.692
 Vibrational            155.495             43.404             32.073
 Vibration     1          0.602              1.957              3.669
 Vibration     2          0.610              1.931              3.065
 Vibration     3          0.612              1.923              2.945
 Vibration     4          0.627              1.873              2.377
 Vibration     5          0.634              1.853              2.224
 Vibration     6          0.660              1.772              1.769
 Vibration     7          0.666              1.753              1.691
 Vibration     8          0.698              1.659              1.374
 Vibration     9          0.720              1.594              1.208
 Vibration    10          0.724              1.583              1.183
 Vibration    11          0.768              1.464              0.951
 Vibration    12          0.770              1.461              0.947
 Vibration    13          0.779              1.436              0.907
 Vibration    14          0.793              1.400              0.851
 Vibration    15          0.835              1.299              0.715
 Vibration    16          0.897              1.157              0.561
 Vibration    17          0.906              1.139              0.543
 Vibration    18          0.935              1.078              0.488

 Normal termination of Gaussian 16 at Sat Mar  4 12:50:27 2023.
