 Gaussian 16, Revision C.01,
 Gaussian 16:  ES64L-G16RevC.01  3-Jul-2019

 ----------------------------------------------------------------------
 #p pop=(regular,nbo,savenbos) freq=noraman def2svp empiricaldispersion
 =gd3bj output=wfx pbe1pbe
 ----------------------------------------------------------------------

 ----------------------------------------
 ZALRIQ_Complex_3_Ligand_6_NN_Cu_oriented
 ----------------------------------------
 Symbolic Z-matrix:
 Charge =  0 Multiplicity = 1

                         Standard orientation:
 ---------------------------------------------------------------------
 Center     Atomic      Atomic             Coordinates (Angstroms)
 Number     Number       Type             X           Y           Z
 ---------------------------------------------------------------------
      1          7           0       -0.434800    1.392049    0.119392
      2          1           0       -0.975853    1.864224   -0.423344
      3          1           0       -0.706939    1.511055    0.969003
      4          6           0       -0.473956   -0.059445   -0.240689
      5          1           0       -0.323128   -0.085076   -1.209050
      6          6           0       -1.719071   -0.697482   -0.047391
      7          1           0       -2.412801   -0.178842   -0.461208
      8          1           0       -1.694919   -1.572268   -0.441835
      9          1           0       -1.894764   -0.775981    0.893417
     10          6           0        0.781519   -0.645977    0.368778
     11          1           0        0.842626   -1.592567    0.167608
     12          1           0        0.769381   -0.535462    1.332940
     13          7           0        1.892748    0.052117   -0.194918
     14          1           0        2.016412   -0.196639   -1.050802
     15          1           0        2.643398   -0.130174    0.267770
 ---------------------------------------------------------------------

 SCF Done:  E(RPBE1PBE) =  -229.229264005     A.U. after   12 cycles

 The electronic state is 1-A.
 Alpha  occ. eigenvalues --  -14.31848 -14.31718 -10.21916 -10.20765 -10.17074
 Alpha  occ. eigenvalues --   -0.92834  -0.89101  -0.79258  -0.70461  -0.61503
 Alpha  occ. eigenvalues --   -0.52660  -0.51798  -0.48494  -0.46463  -0.45228
 Alpha  occ. eigenvalues --   -0.41555  -0.39452  -0.36069  -0.33804  -0.23647
 Alpha  occ. eigenvalues --   -0.21248
 Alpha virt. eigenvalues --    0.07727   0.10467   0.12108   0.13366   0.16233
 Alpha virt. eigenvalues --    0.16806   0.17887   0.18758   0.20484   0.22736
 Alpha virt. eigenvalues --    0.25444   0.26282   0.28129   0.30129   0.46070

 Mulliken charges:
               1
     1  N   -0.137293
     2  H    0.040052
     3  H    0.039355
     4  C   -0.136410
     5  H   -0.040699
     6  C    0.266763
     7  H   -0.037150
     8  H   -0.039062
     9  H   -0.038723
    10  C    0.233396
    11  H   -0.051806
    12  H   -0.044403
    13  N   -0.131458
    14  H    0.038400
    15  H    0.039038
 Sum of Mulliken charges =  -0.00000

 Dipole moment (field-independent basis, Debye):
    X=             -0.7993    Y=             -1.6089    Z=             -0.0570  Tot=              1.7974
 Quadrupole moment (field-independent basis, Debye-Ang):
   XX=            -29.2793   YY=            -33.5250   ZZ=            -29.3774
   XY=             -4.6760   XZ=             -0.0158   YZ=              0.6667

  Exact polarizability:      44.160       0.597      39.737       0.195       0.063      36.250
 Approx polarizability:      50.944       1.089      50.445       0.331       0.312      49.099

 Summary of Natural Population Analysis:

                                       Natural Population
                Natural  -----------------------------------------------
    Atom  No    Charge         Core      Valence    Rydberg      Total
 -----------------------------------------------------------------------
      N    1   -0.80386      1.99944     5.78139    0.02304     7.80386
      H    2    0.31979      0.00000     0.67524    0.00498     0.68021
      H    3    0.31277      0.00000     0.68153    0.00570     0.68723
      C    4    0.01319      1.99904     3.97161    0.01616     5.98681
      H    5    0.16509      0.00000     0.82938    0.00554     0.83491
      C    6   -0.57389      1.99912     4.56482    0.00994     6.57389
      H    7    0.19001      0.00000     0.80608    0.00391     0.80999
      H    8    0.18870      0.00000     0.80742    0.00389     0.81130
      H    9    0.17792      0.00000     0.81780    0.00428     0.82208
      C   10   -0.15028      1.99906     4.13573    0.01549     6.15028
      H   11    0.14789      0.00000     0.84851    0.00360     0.85211
      H   12    0.16797      0.00000     0.82824    0.00379     0.83203
      N   13   -0.79290      1.99942     5.77166    0.02182     7.79290
      H   14    0.31520      0.00000     0.67943    0.00537     0.68480
      H   15    0.32242      0.00000     0.67249    0.00509     0.67758
 =======================================================================
   * Total *   -0.00000      9.99609    31.87131    0.13260    42.00000

 ******   12 imaginary frequencies (negative Signs) ******

                      1                      2                      3
                      A                      A                      A
 Frequencies --  -1543.3759             -1528.5862             -1364.3355
 Red. masses --      1.0675                 1.0344                 1.1464
 Frc consts  --      1.4981                 1.4241                 1.2573
 IR Inten    --     19.4369                81.7526               183.5849

                      4                      5                      6
                      A                      A                      A
 Frequencies --  -1351.2593             -1334.6562             -1042.6347
 Red. masses --      1.0370                 1.1380                 1.0830
 Frc consts  --      1.1156                 1.1943                 0.6937
 IR Inten    --     23.4391               147.1349                 0.5451

                      7                      8                      9
                      A                      A                      A
 Frequencies --   -984.8567              -974.2094              -942.5057
 Red. masses --      1.0880                 1.1004                 1.0889
 Frc consts  --      0.6218                 0.6153                 0.5699
 IR Inten    --      0.8546                 1.7369                 0.3088

                     10                     11                     12
                      A                      A                      A
 Frequencies --   -853.3792              -438.4611              -201.7969
 Red. masses --      1.1339                 1.3738                 1.8593
 Frc consts  --      0.4865                 0.1556                 0.0446
 IR Inten    --      3.3234                 1.6749                 4.0621

                     13                     14                     15
                      A                      A                      A
 Frequencies --    518.2137               535.0101               616.9686
 Red. masses --      3.0969                 1.1135                 3.7701
 Frc consts  --      0.4900                 0.1878                 0.8455
 IR Inten    --      1.6632                15.7216                20.5410

                     16                     17                     18
                      A                      A                      A
 Frequencies --    649.9722               778.3788               804.3910
 Red. masses --      2.2831                 1.6218                 2.1475
 Frc consts  --      0.5683                 0.5789                 0.8187
 IR Inten    --      3.0467                13.8117                 4.5236

                     19                     20                     21
                      A                      A                      A
 Frequencies --    871.4655               909.2471               962.0906
 Red. masses --      1.3162                 1.3652                 1.4784
 Frc consts  --      0.5890                 0.6650                 0.8062
 IR Inten    --      8.3043                11.8461                37.7398

                     22                     23                     24
                      A                      A                      A
 Frequencies --    998.5067              1031.6452              1048.1079
 Red. masses --      1.0334                 1.2654                 1.2459
 Frc consts  --      0.6070                 0.7935                 0.8064
 IR Inten    --      6.0888                 4.1893                 0.5903

                     25                     26                     27
                      A                      A                      A
 Frequencies --   1087.8957              1157.8011              1231.6043
 Red. masses --      1.1923                 2.0755                 3.9081
 Frc consts  --      0.8314                 1.6392                 3.4927
 IR Inten    --     18.5202                 6.0240                13.8011

                     28                     29                     30
                      A                      A                      A
 Frequencies --   1251.9375              1507.1700              4337.1243
 Red. masses --      4.0167                 8.0207                 1.0871
 Frc consts  --      3.7093                10.7346                12.0484
 IR Inten    --     18.0114                12.9445                21.6716

                     31                     32                     33
                      A                      A                      A
 Frequencies --   4404.6111              4457.5754              4529.3520
 Red. masses --      1.0591                 1.0338                 1.1096
 Frc consts  --     12.1060                12.1029                13.4123
 IR Inten    --     38.0907                11.6449                21.7264

                     34                     35                     36
                      A                      A                      A
 Frequencies --   4660.9363              4665.9285              5108.4974
 Red. masses --      1.1055                 1.1060                 1.0505
 Frc consts  --     14.1495                14.1871                16.1527
 IR Inten    --      8.3575                 6.2895                 3.2521

                     37                     38                     39
                      A                      A                      A
 Frequencies --   5110.2699              5241.1326              5248.4203
 Red. masses --      1.0498                 1.0952                 1.0956
 Frc consts  --     16.1528                17.7257                17.7818
 IR Inten    --      2.2644                 8.1975                 6.2618

 - Thermochemistry -
 -------------------
 Temperature   298.150 Kelvin.  Pressure   1.00000 Atm.
 Atom     1 has atomic number  7 and mass  14.00307

 Molecular mass:    74.08440 amu.
 Principal axes and moments of inertia in atomic units:
                           1         2         3
     Eigenvalues --   213.41841 480.57394 623.24680
           X            0.99995  -0.00990   0.00037
           Y            0.00990   0.99995   0.00127
           Z           -0.00038  -0.00126   1.00000
 This molecule is an asymmetric top.
 Rotational symmetry number  1.
 Rotational temperatures (Kelvin)      0.40584     0.18023     0.13897
 Rotational constants (GHZ):           8.45635     3.75539     2.89571
   12 imaginary frequencies ignored.
 Zero-point vibrational energy     381155.7 (Joules/Mol)
                                   91.09839 (Kcal/Mol)
 Warning -- explicit consideration of   3 degrees of freedom as
           vibrations may cause significant error
 Vibrational temperatures:    745.59   769.76   887.68   935.16  1119.91
          (Kelvin)           1157.34  1253.84  1308.20  1384.23  1436.63
                             1484.31  1507.99  1565.24  1665.82  1772.00
                             1801.26  2168.48  6240.15  6337.25  6413.46
                             6516.73  6706.05  6713.23  7349.99  7352.54
                             7540.82  7551.31

 Zero-point correction=                           0.145175 (Hartree/Particle)
 Thermal correction to Energy=                    0.149199
 Thermal correction to Enthalpy=                  0.150143
 Thermal correction to Gibbs Free Energy=         0.117955
 Sum of electronic and zero-point Energies=           -229.084089
 Sum of electronic and thermal Energies=              -229.080065
 Sum of electronic and thermal Enthalpies=            -229.079121
 Sum of electronic and thermal Free Energies=         -229.111309

                     E (Thermal)             CV                S
                      KCal/Mol        Cal/Mol-Kelvin    Cal/Mol-Kelvin
 Total                   93.624             15.053             67.746
 Electronic               0.000              0.000              0.000
 Translational            0.889              2.981             38.824
 Rotational               0.889              2.981             25.661
 Vibrational             91.846              9.091              3.261
 Vibration     1          0.873              1.210              0.614
 Vibration     2          0.890              1.173              0.576
 Vibration     3          0.977              0.996              0.421

 Normal termination of Gaussian 16 at Sat Mar  4 11:46:20 2023.
