 Gaussian 16, Revision C.01,
 Gaussian 16:  ES64L-G16RevC.01  3-Jul-2019

 ----------------------------------------------------------------------
 #p pop=(regular,nbo,savenbos) freq=noraman def2svp empiricaldispersion
 =gd3bj output=wfx pbe1pbe
 ----------------------------------------------------------------------

 ----------------------------------------
 ZAVDUX_Complex_6_Ligand_1_NN_Cu_oriented
 ----------------------------------------
 Symbolic Z-matrix:
 Charge =  0 Multiplicity = 1

                         Standard orientation:
 ---------------------------------------------------------------------
 Center     Atomic      Atomic             Coordinates (Angstroms)
 Number     Number       Type             X           Y           Z
 ---------------------------------------------------------------------
      1          7           0       -1.768941    3.066089   -1.009084
      2          7           0       -1.649869    0.455648   -0.558797
      3          6           0       -1.903166    4.375551   -1.250729
      4          1           0       -2.242864    4.658977   -2.090727
      5          6           0       -1.563784    5.310921   -0.322799
      6          1           0       -1.687923    6.232827   -0.511833
      7          6           0       -1.037798    4.921188    0.901250
      8          6           0       -0.888063    3.561675    1.158054
      9          6           0       -1.273710    2.660854    0.179887
     10          6           0       -1.181752    1.203013    0.337252
     11          8           0        0.784213   -1.032784    0.182518
     12          6           0       -1.505497   -1.008981   -0.544693
     13          1           0       -1.187913   -1.283111   -1.452493
     14          6           0       -2.851243   -1.686805   -0.314296
     15          6           0       -3.808129   -1.152112    0.534030
     16          6           0       -4.964594   -1.842201    0.786357
     17          6           0       -5.189745   -3.067405    0.195338
     18          1           0       -5.994539   -3.541157    0.376329
     19          6           0       -4.253905   -3.601885   -0.651834
     20          1           0       -4.418068   -4.441118   -1.065872
     21          6           0       -3.077807   -2.933513   -0.911951
     22          1           0       -2.425766   -3.313822   -1.489039
     23          6           0       -0.512486   -1.550310    0.455934
     24          1           0       -0.786692   -1.292395    1.371086
     25          1           0       -0.493581   -2.539425    0.405697
     26          6           0        1.790045   -1.710193    0.933717
     27          1           0        1.707447   -2.688642    0.801612
     28          1           0        1.677837   -1.517474    1.897964
     29          6           0        3.131561   -1.249740    0.479258
     30          6           0        4.706319   -0.806534   -1.295228
     31          1           0        4.910637   -0.754039   -2.221492
     32          6           0        3.452943   -1.212603   -0.872143
     33          1           0        2.803280   -1.471065   -1.515830
     34          9           0        6.887893   -0.108688   -0.761828
     35          6           0        4.103806   -0.902879    1.400544
     36          1           0        3.898582   -0.926973    2.327379
     37          6           0        5.385461   -0.514553    0.986713
     38          1           0        6.053680   -0.281891    1.620885
     39          6           0        5.644171   -0.481446   -0.357823
     40          1           0       -0.771242    0.828193    1.107435
     41          1           0       -0.785196    5.568297    1.549456
     42          1           0       -5.613848   -1.473457    1.372914
     43          1           0       -0.530997    3.258410    1.985070
     44          1           0       -3.661674   -0.306074    0.941928
 ---------------------------------------------------------------------

 SCF Done:  E(RPBE1PBE) =  -1093.89525443     A.U. after   14 cycles

 The electronic state is 1-A.
 Alpha  occ. eigenvalues --  -24.77424 -19.21476 -14.37781 -14.37290 -10.31327
 Alpha  occ. eigenvalues --  -10.26955 -10.26755 -10.25973 -10.25597 -10.25313
 Alpha  occ. eigenvalues --  -10.25091 -10.24320 -10.24254 -10.24215 -10.23549
 Alpha  occ. eigenvalues --  -10.23482 -10.23070 -10.23054 -10.22817 -10.22746
 Alpha  occ. eigenvalues --  -10.22167 -10.21876 -10.21800 -10.21724 -10.21636
 Alpha  occ. eigenvalues --   -1.22521  -1.05773  -0.96671  -0.93504  -0.89622
 Alpha  occ. eigenvalues --   -0.88527  -0.82955  -0.82390  -0.80401  -0.79142
 Alpha  occ. eigenvalues --   -0.78950  -0.77956  -0.75085  -0.71296  -0.69019
 Alpha  occ. eigenvalues --   -0.67049  -0.66560  -0.65550  -0.64375  -0.62682
 Alpha  occ. eigenvalues --   -0.62205  -0.59258  -0.57491  -0.56650  -0.56097
 Alpha  occ. eigenvalues --   -0.53974  -0.53181  -0.52281  -0.52056  -0.50745
 Alpha  occ. eigenvalues --   -0.49822  -0.49502  -0.48567  -0.48297  -0.47691
 Alpha  occ. eigenvalues --   -0.46817  -0.46515  -0.46158  -0.45656  -0.45086
 Alpha  occ. eigenvalues --   -0.44041  -0.43491  -0.42235  -0.41550  -0.40622
 Alpha  occ. eigenvalues --   -0.39489  -0.39159  -0.38140  -0.37858  -0.37044
 Alpha  occ. eigenvalues --   -0.36975  -0.36104  -0.34734  -0.33543  -0.29742
 Alpha  occ. eigenvalues --   -0.28534  -0.27797  -0.27095  -0.26696  -0.26352
 Alpha  occ. eigenvalues --   -0.25964  -0.25733  -0.23834
 Alpha virt. eigenvalues --   -0.04823  -0.01889  -0.01639  -0.00538  -0.00126
 Alpha virt. eigenvalues --    0.00235   0.05326   0.07035   0.09534   0.09885
 Alpha virt. eigenvalues --    0.10293   0.10672   0.12096   0.12574   0.13207

 Mulliken charges:
               1
     1  N   -0.152911
     2  N   -0.178269
     3  C    0.183299
     4  H   -0.056707
     5  C    0.022114
     6  H   -0.066045
     7  C    0.138509
     8  C    0.077994
     9  C   -0.010598
    10  C    0.171860
    11  O   -0.455928
    12  C    0.165970
    13  H   -0.016325
    14  C   -0.082427
    15  C    0.086888
    16  C    0.085130
    17  C    0.083116
    18  H   -0.075315
    19  C    0.088397
    20  H   -0.077707
    21  C    0.075518
    22  H   -0.090749
    23  C    0.354416
    24  H   -0.041006
    25  H   -0.035386
    26  C    0.434165
    27  H   -0.013155
    28  H   -0.041691
    29  C   -0.121420
    30  C    0.014967
    31  H   -0.071414
    32  C    0.106247
    33  H   -0.083079
    34  F   -0.233011
    35  C    0.066831
    36  H   -0.088014
    37  C    0.018510
    38  H   -0.074815
    39  C    0.319053
    40  H   -0.103833
    41  H   -0.067541
    42  H   -0.078711
    43  H   -0.084969
    44  H   -0.091960
 Sum of Mulliken charges =  -0.00000

 Dipole moment (field-independent basis, Debye):
    X=             -0.7005    Y=             -0.4700    Z=              3.4325  Tot=              3.5346
 Quadrupole moment (field-independent basis, Debye-Ang):
   XX=           -156.0767   YY=           -120.3636   ZZ=           -135.2399
   XY=              0.2682   XZ=              0.0193   YZ=              5.2948

  Exact polarizability:     236.549      32.970     242.395       0.644      13.228     179.252
 Approx polarizability:     316.846      42.521     337.443       2.970      33.694     317.801

 Summary of Natural Population Analysis:

                                       Natural Population
                Natural  -----------------------------------------------
    Atom  No    Charge         Core      Valence    Rydberg      Total
 -----------------------------------------------------------------------
      N    1   -0.44409      1.99931     5.42823    0.01655     7.44409
      N    2   -0.42040      1.99931     5.40112    0.01997     7.42040
      C    3    0.10602      1.99909     3.87434    0.02054     5.89398
      H    4    0.16093      0.00000     0.83605    0.00302     0.83907
      C    5   -0.21378      1.99910     4.20186    0.01282     6.21378
      H    6    0.18081      0.00000     0.81584    0.00335     0.81919
      C    7   -0.13686      1.99913     4.12398    0.01375     6.13686
      C    8   -0.20249      1.99902     4.18965    0.01382     6.20249
      C    9    0.17124      1.99902     3.80442    0.02532     5.82876
      C   10    0.12451      1.99901     3.85005    0.02643     5.87549
      O   11   -0.61577      1.99974     6.60564    0.01039     8.61577
      C   12   -0.04514      1.99889     4.02146    0.02479     6.04514
      H   13    0.21667      0.00000     0.77822    0.00511     0.78333
      C   14   -0.02512      1.99898     4.00700    0.01914     6.02512
      C   15   -0.18276      1.99897     4.16838    0.01541     6.18276
      C   16   -0.16173      1.99909     4.14841    0.01423     6.16173
      C   17   -0.18133      1.99910     4.16820    0.01403     6.18133
      H   18    0.17897      0.00000     0.81797    0.00306     0.82103
      C   19   -0.16772      1.99909     4.15445    0.01418     6.16772
      H   20    0.17900      0.00000     0.81792    0.00308     0.82100
      C   21   -0.18344      1.99900     4.16947    0.01497     6.18344
      H   22    0.18033      0.00000     0.81665    0.00302     0.81967
      C   23   -0.01727      1.99891     4.00069    0.01767     6.01727
      H   24    0.15867      0.00000     0.83670    0.00463     0.84133
      H   25    0.17155      0.00000     0.82439    0.00406     0.82845
      C   26   -0.00681      1.99889     3.98895    0.01897     6.00681
      H   27    0.16880      0.00000     0.82670    0.00450     0.83120
      H   28    0.16243      0.00000     0.83349    0.00408     0.83757
      C   29   -0.06457      1.99901     4.04971    0.01585     6.06457
      C   30   -0.24627      1.99896     4.23193    0.01538     6.24627
      H   31    0.19790      0.00000     0.79879    0.00331     0.80210
      C   32   -0.14278      1.99901     4.12849    0.01528     6.14278
      H   33    0.18871      0.00000     0.80697    0.00432     0.81129
      F   34   -0.35553      1.99991     7.35084    0.00478     9.35553
      C   35   -0.16184      1.99900     4.14881    0.01403     6.16184
      H   36    0.18017      0.00000     0.81672    0.00311     0.81983
      C   37   -0.24619      1.99898     4.23161    0.01561     6.24619
      H   38    0.19629      0.00000     0.80050    0.00321     0.80371
      C   39    0.43538      1.99841     3.53854    0.02767     5.56462
      H   40    0.13226      0.00000     0.86065    0.00710     0.86774
      H   41    0.18047      0.00000     0.81675    0.00278     0.81953
      H   42    0.17870      0.00000     0.81825    0.00305     0.82130
      H   43    0.18451      0.00000     0.81230    0.00319     0.81549
      H   44    0.18756      0.00000     0.80892    0.00353     0.81244
 =======================================================================
   * Total *    0.00000     49.97693   125.53000    0.49307   176.00000

 ******   33 imaginary frequencies (negative Signs) ******

                      1                      2                      3
                      A                      A                      A
 Frequencies --  -1268.7070             -1261.3455             -1233.4413
 Red. masses --      1.0815                 1.0755                 1.0697
 Frc consts  --      1.0257                 1.0082                 0.9589
 IR Inten    --     72.7413                49.8239                70.2468

                      4                      5                      6
                      A                      A                      A
 Frequencies --  -1207.7548             -1194.4635             -1167.2678
 Red. masses --      1.0454                 1.0396                 1.0360
 Frc consts  --      0.8984                 0.8739                 0.8316
 IR Inten    --     21.5102                 0.4041                 0.0154

                      7                      8                      9
                      A                      A                      A
 Frequencies --  -1130.4938             -1099.3016             -1087.9905
 Red. masses --      1.0285                 1.0242                 1.0136
 Frc consts  --      0.7744                 0.7292                 0.7069
 IR Inten    --      0.6929                 0.3827                 0.0040

                     10                     11                     12
                      A                      A                      A
 Frequencies --  -1052.6922             -1031.4540             -1026.3587
 Red. masses --      1.0241                 1.0111                 1.0279
 Frc consts  --      0.6686                 0.6338                 0.6380
 IR Inten    --      0.1967                 0.3536                 0.5432

                     13                     14                     15
                      A                      A                      A
 Frequencies --   -978.8170              -937.9995              -881.1997
 Red. masses --      1.0268                 1.0283                 1.0873
 Frc consts  --      0.5796                 0.5331                 0.4974
 IR Inten    --      0.7108                 0.3053                 2.5491

                     16                     17                     18
                      A                      A                      A
 Frequencies --   -861.2404              -679.5574              -679.0442
 Red. masses --      1.0437                 1.1288                 1.1631
 Frc consts  --      0.4561                 0.3071                 0.3160
 IR Inten    --      0.1997                 1.3077                 2.4008

                     19                     20                     21
                      A                      A                      A
 Frequencies --   -661.8649              -629.5283              -626.8428
 Red. masses --      1.1440                 1.1084                 1.2373
 Frc consts  --      0.2953                 0.2588                 0.2864
 IR Inten    --      3.9346                 0.4531                 0.9077

                     22                     23                     24
                      A                      A                      A
 Frequencies --   -614.5192              -587.9047              -574.0743
 Red. masses --      1.2542                 1.2425                 1.1496
 Frc consts  --      0.2791                 0.2530                 0.2232
 IR Inten    --      2.0796                 2.7595                 5.5756

                     25                     26                     27
                      A                      A                      A
 Frequencies --   -530.6872              -448.1069              -446.6461
 Red. masses --      1.3087                 1.2567                 1.3027
 Frc consts  --      0.2172                 0.1487                 0.1531
 IR Inten    --      6.5836                 5.9747                 5.7597

                     28                     29                     30
                      A                      A                      A
 Frequencies --   -386.0074              -366.9258              -314.0271
 Red. masses --      1.0780                 2.1290                 1.1820
 Frc consts  --      0.0946                 0.1689                 0.0687
 IR Inten    --     16.4488                 4.4371                14.6417

                     31                     32                     33
                      A                      A                      A
 Frequencies --   -296.5215              -202.2955              -108.4499
 Red. masses --      1.0506                 2.4092                 4.1121
 Frc consts  --      0.0544                 0.0581                 0.0285
 IR Inten    --     22.3321                 2.9534                 0.3320

                     34                     35                     36
                      A                      A                      A
 Frequencies --     29.3585                61.7451                73.2833
 Red. masses --      5.3626                 6.1983                 7.6627
 Frc consts  --      0.0027                 0.0139                 0.0242
 IR Inten    --      0.4871                 0.6370                 0.2064

                     37                     38                     39
                      A                      A                      A
 Frequencies --    150.7581               173.4486               181.5089
 Red. masses --      8.6080                 5.7390                 8.6523
 Frc consts  --      0.1153                 0.1017                 0.1679
 IR Inten    --      0.3812                 0.1567                 0.2771

                     40                     41                     42
                      A                      A                      A
 Frequencies --    207.6556               233.9615               239.3187
 Red. masses --      9.3832                 7.7049                 8.1311
 Frc consts  --      0.2384                 0.2485                 0.2744
 IR Inten    --      0.0660                 0.4697                 0.3617

                     43                     44                     45
                      A                      A                      A
 Frequencies --    242.7934               274.3424               294.4805
 Red. masses --      8.5958                 5.7739                 7.7332
 Frc consts  --      0.2985                 0.2560                 0.3951
 IR Inten    --      0.6726                 0.8198                 0.3264

                     46                     47                     48
                      A                      A                      A
 Frequencies --    409.3570               414.1245               445.0098
 Red. masses --      4.8109                 4.8967                 3.3963
 Frc consts  --      0.4750                 0.4948                 0.3963
 IR Inten    --      0.6761                 0.4012                 2.0360

                     49                     50                     51
                      A                      A                      A
 Frequencies --    485.8506               535.1308               540.4879
 Red. masses --      7.0035                 5.0279                11.4536
 Frc consts  --      0.9740                 0.8483                 1.9713
 IR Inten    --      1.9693                 2.7885                 1.4266

                     52                     53                     54
                      A                      A                      A
 Frequencies --    542.2844               544.1805               556.0940
 Red. masses --     11.3519                10.0440                 2.7194
 Frc consts  --      1.9669                 1.7524                 0.4955
 IR Inten    --      0.1072                 1.4869                 3.2053

                     55                     56                     57
                      A                      A                      A
 Frequencies --    570.8664               640.0423               654.4536
 Red. masses --      3.7478                 4.2757                 4.3377
 Frc consts  --      0.7196                 1.0320                 1.0946
 IR Inten    --      3.8426                 0.9191                25.0291

                     58                     59                     60
                      A                      A                      A
 Frequencies --    672.7006               686.5121               702.4626
 Red. masses --      9.9777                 3.5853                 3.3703
 Frc consts  --      2.6603                 0.9956                 0.9799
 IR Inten    --      0.8200                 9.6528                 8.3606

                     61                     62                     63
                      A                      A                      A
 Frequencies --    710.1535               731.4437               741.6525
 Red. masses --      3.4299                 2.7625                 4.2037
 Frc consts  --      1.0191                 0.8708                 1.3623
 IR Inten    --     17.7412                10.4054                18.1610

                     64                     65                     66
                      A                      A                      A
 Frequencies --    757.2377               762.3559               768.4569
 Red. masses --      1.9184                 3.6481                 3.0591
 Frc consts  --      0.6481                 1.2492                 1.0644
 IR Inten    --      5.0308                27.7702                 2.5555

                     67                     68                     69
                      A                      A                      A
 Frequencies --    795.8665               816.9612               835.1331
 Red. masses --      3.5008                 3.6790                 8.3723
 Frc consts  --      1.3065                 1.4467                 3.4404
 IR Inten    --      3.2774                 2.6932                 5.1485

                     70                     71                     72
                      A                      A                      A
 Frequencies --    839.3078               849.0513               858.6346
 Red. masses --      2.9881                 4.2613                 2.6042
 Frc consts  --      1.2402                 1.8099                 1.1312
 IR Inten    --      6.5614                 9.8296                 0.3735

                     73                     74                     75
                      A                      A                      A
 Frequencies --    864.8604               897.5198               914.9910
 Red. masses --      3.3597                 3.5774                 1.9605
 Frc consts  --      1.4806                 1.6979                 0.9671
 IR Inten    --     17.7737                 7.8501                 8.9230

                     76                     77                     78
                      A                      A                      A
 Frequencies --    949.6775               955.6305               995.7695
 Red. masses --      2.9548                 2.5475                 2.8550
 Frc consts  --      1.5701                 1.3707                 1.6679
 IR Inten    --     27.8217                 8.1448                10.6782

                     79                     80                     81
                      A                      A                      A
 Frequencies --   1010.3035              1038.3377              1050.1309
 Red. masses --      4.6040                 7.5862                 4.9610
 Frc consts  --      2.7688                 4.8190                 3.2233
 IR Inten    --      9.9340                 2.1976                 2.2394

                     82                     83                     84
                      A                      A                      A
 Frequencies --   1061.9511              1082.4173              1109.4068
 Red. masses --      4.4179                 3.0652                 2.2952
 Frc consts  --      2.9355                 2.1159                 1.6644
 IR Inten    --      6.9970                48.3343               193.8402

                     85                     86                     87
                      A                      A                      A
 Frequencies --   1156.3513              1175.8970              1195.0268
 Red. masses --      3.6491                 2.1561                 1.9407
 Frc consts  --      2.8749                 1.7565                 1.6329
 IR Inten    --     18.0307                37.7297                48.0956

                     88                     89                     90
                      A                      A                      A
 Frequencies --   1212.6508              1226.9141              1264.7555
 Red. masses --      1.9425                 8.0207                 7.3178
 Frc consts  --      1.6830                 7.1136                 6.8968
 IR Inten    --     20.7941                 5.1253                 7.6820

                     91                     92                     93
                      A                      A                      A
 Frequencies --   1303.3364              1334.0331              1381.7073
 Red. masses --      8.7220                 8.9584                 9.3022
 Frc consts  --      8.7293                 9.3933                10.4633
 IR Inten    --     93.4738                 0.3507                14.1088

                     94                     95                     96
                      A                      A                      A
 Frequencies --   1392.9679              1417.3435              1439.1842
 Red. masses --      8.4566                 8.2534                 8.3228
 Frc consts  --      9.6679                 9.7687                10.1567
 IR Inten    --      5.1979                 3.0158                 1.3102

                     97                     98                     99
                      A                      A                      A
 Frequencies --   1470.3509              1480.7105              1488.1817
 Red. masses --      8.5935                 8.0177                 9.5859
 Frc consts  --     10.9461                10.3571                12.5081
 IR Inten    --      6.4448                 4.4378                11.0606

                    100                    101                    102
                      A                      A                      A
 Frequencies --   1520.1357              1617.9371              1669.6079
 Red. masses --      9.9764                10.9068                11.4731
 Frc consts  --     13.5828                16.8218                18.8434
 IR Inten    --     94.6084                28.7225                42.8835

                    103                    104                    105
                      A                      A                      A
 Frequencies --   1680.0025              1690.4974              1710.3702
 Red. masses --     10.2054                10.4991                10.4311
 Frc consts  --     16.9706                17.6780                17.9788
 IR Inten    --      1.1575                21.4631                 5.7345

                    106                    107                    108
                      A                      A                      A
 Frequencies --   1745.0167              1811.4986              4132.5808
 Red. masses --     10.0748                10.6636                 1.0872
 Frc consts  --     18.0754                20.6172                10.9395
 IR Inten    --      7.5919                41.4034                 2.9440

                    109                    110                    111
                      A                      A                      A
 Frequencies --   4175.3601              4177.4567              4284.6371
 Red. masses --      1.0584                 1.0583                 1.1095
 Frc consts  --     10.8719                10.8811                12.0004
 IR Inten    --     13.3958                35.0414                24.1789

                    112                    113                    114
                      A                      A                      A
 Frequencies --   4290.2727              4749.8465              4750.8840
 Red. masses --      1.1106                 1.0875                 1.0880
 Frc consts  --     12.0447                14.4557                14.4693
 IR Inten    --      2.5156                 0.0326                12.8864

                    115                    116                    117
                      A                      A                      A
 Frequencies --   4760.9022              4762.9881              4763.1163
 Red. masses --      1.0885                 1.0888                 1.0884
 Frc consts  --     14.5362                14.5525                14.5483
 IR Inten    --      0.1261                 0.7843                 0.5369

                    118                    119                    120
                      A                      A                      A
 Frequencies --   4768.0511              4771.8758              4772.6377
 Red. masses --      1.0883                 1.0883                 1.0887
 Frc consts  --     14.5768                14.6012                14.6103
 IR Inten    --      0.0993                 1.3332                 0.1878

                    121                    122                    123
                      A                      A                      A
 Frequencies --   4773.7850              4779.2760              4779.8066
 Red. masses --      1.0920                 1.0903                 1.0924
 Frc consts  --     14.6627                14.6733                14.7040
 IR Inten    --      1.0789                 0.8819                 1.0936

                    124                    125                    126
                      A                      A                      A
 Frequencies --   4779.9439              4781.2177              4788.2595
 Red. masses --      1.0915                 1.0915                 1.0932
 Frc consts  --     14.6939                14.7017                14.7671
 IR Inten    --      2.5870                 0.5754                 2.2991

 - Thermochemistry -
 -------------------
 Temperature   298.150 Kelvin.  Pressure   1.00000 Atm.
 Atom     1 has atomic number  7 and mass  14.00307

 Molecular mass:   334.14814 amu.
 Principal axes and moments of inertia in atomic units:
                           1         2         3
     Eigenvalues --  8104.34236********************
           X            0.99997   0.00731   0.00285
           Y           -0.00732   0.99997   0.00236
           Z           -0.00284  -0.00238   0.99999
 This molecule is an asymmetric top.
 Rotational symmetry number  1.
 Warning -- assumption of classical behavior for rotation
           may cause significant error
 Rotational temperatures (Kelvin)      0.01069     0.00562     0.00396
 Rotational constants (GHZ):           0.22269     0.11712     0.08260
   33 imaginary frequencies ignored.
 Zero-point vibrational energy     916260.8 (Joules/Mol)
                                  218.99158 (Kcal/Mol)
 Warning -- explicit consideration of  22 degrees of freedom as
           vibrations may cause significant error
 Vibrational temperatures:     42.24    88.84   105.44   216.91   249.55
          (Kelvin)            261.15   298.77   336.62   344.33   349.33
                              394.72   423.69   588.97   595.83   640.27
                              699.03   769.93   777.64   780.23   782.95
                              800.10   821.35   920.88   941.61   967.87
                              987.74  1010.69  1021.75  1052.38  1067.07
                             1089.50  1096.86  1105.64  1145.07  1175.42
                             1201.57  1207.58  1221.60  1235.38  1244.34
                             1291.33  1316.47  1366.37  1374.94  1432.69
                             1453.60  1493.94  1510.90  1527.91  1557.36
                             1596.19  1663.73  1691.85  1719.38  1744.73
                             1765.26  1819.70  1875.21  1919.38  1987.97
                             2004.17  2039.24  2070.67  2115.51  2130.41
                             2141.16  2187.14  2327.85  2402.19  2417.15
                             2432.25  2460.84  2510.69  2606.34  5945.86
                             6007.41  6010.43  6164.64  6172.75  6833.97
                             6835.46  6849.88  6852.88  6853.06  6860.16
                             6865.66  6866.76  6868.41  6876.31  6877.08
                             6877.27  6879.11  6889.24

 Zero-point correction=                           0.348985 (Hartree/Particle)
 Thermal correction to Energy=                    0.363587
 Thermal correction to Enthalpy=                  0.364531
 Thermal correction to Gibbs Free Energy=         0.305402
 Sum of electronic and zero-point Energies=          -1093.546269
 Sum of electronic and thermal Energies=             -1093.531668
 Sum of electronic and thermal Enthalpies=           -1093.530724
 Sum of electronic and thermal Free Energies=        -1093.589852

                     E (Thermal)             CV                S
                      KCal/Mol        Cal/Mol-Kelvin    Cal/Mol-Kelvin
 Total                  228.154             60.174            124.446
 Electronic               0.000              0.000              0.000
 Translational            0.889              2.981             43.314
 Rotational               0.889              2.981             36.255
 Vibrational            226.377             54.213             44.878
 Vibration     1          0.593              1.984              5.872
 Vibration     2          0.597              1.973              4.401
 Vibration     3          0.599              1.967              4.063
 Vibration     4          0.618              1.902              2.663
 Vibration     5          0.627              1.875              2.398
 Vibration     6          0.630              1.865              2.313
 Vibration     7          0.641              1.829              2.064
 Vibration     8          0.654              1.789              1.848
 Vibration     9          0.657              1.780              1.808
 Vibration    10          0.659              1.775              1.782
 Vibration    11          0.677              1.721              1.569
 Vibration    12          0.689              1.684              1.448
 Vibration    13          0.774              1.450              0.929
 Vibration    14          0.778              1.440              0.912
 Vibration    15          0.804              1.372              0.811
 Vibration    16          0.842              1.281              0.694
 Vibration    17          0.890              1.172              0.576
 Vibration    18          0.896              1.161              0.564
 Vibration    19          0.897              1.157              0.560
 Vibration    20          0.899              1.152              0.556
 Vibration    21          0.912              1.126              0.532
 Vibration    22          0.927              1.094              0.503

 Normal termination of Gaussian 16 at Sat Mar  4 13:17:48 2023.
