 Gaussian 16, Revision C.01,
 Gaussian 16:  ES64L-G16RevC.01  3-Jul-2019

 ----------------------------------------------------------------------
 #p pop=(regular,nbo,savenbos) freq=noraman def2svp empiricaldispersion
 =gd3bj output=wfx pbe1pbe
 ----------------------------------------------------------------------

 ----------------------------------------
 ZEDBUF_Complex_1_Ligand_2_ON_Cu_oriented
 ----------------------------------------
 Symbolic Z-matrix:
 Charge = -1 Multiplicity = 1

                         Standard orientation:
 ---------------------------------------------------------------------
 Center     Atomic      Atomic             Coordinates (Angstroms)
 Number     Number       Type             X           Y           Z
 ---------------------------------------------------------------------
      1         35           0       -3.637463   -0.253391    0.294251
      2          8           0        3.792318   -1.038702    1.546300
      3          8           0        3.382045   -1.773613   -0.509987
      4          7           0        3.065659    1.426376    1.058227
      5          6           0        3.477398   -0.858312    0.290745
      6          6           0        3.306069    0.583702   -0.135653
      7          6           0        2.239283    0.775703   -1.219378
      8          6           0        0.827181    0.523061   -0.797963
      9          6           0        0.289633   -0.751032   -0.874968
     10          6           0       -1.034031   -0.978900   -0.532082
     11          6           0       -1.809069    0.079334   -0.110277
     12          6           0       -1.301023    1.356945   -0.020845
     13          6           0        0.012151    1.562138   -0.368340
     14          1           0        2.147721    1.503030    1.260798
     15          1           0        3.284079    2.217036    1.013437
     16          1           0        4.221540    0.860208   -0.421601
     17          1           0        2.496175    0.221039   -1.967109
     18          1           0        2.343480    1.649283   -1.464419
     19          1           0        0.847037   -1.507206   -1.179272
     20          1           0       -1.353470   -1.829626   -0.775703
     21          1           0       -1.861530    2.111037    0.239777
     22          1           0        0.286098    2.401925   -0.090233
 ---------------------------------------------------------------------

 SCF Done:  E(RPBE1PBE) =  -3125.96048569     A.U. after   17 cycles

 The electronic state is 1-A.
 Alpha  occ. eigenvalues -- -483.09862 -62.53242 -56.32216 -56.31891 -56.31886
 Alpha  occ. eigenvalues --  -18.94111 -18.91003 -14.18599 -10.18591 -10.13319
 Alpha  occ. eigenvalues --  -10.13306 -10.12639 -10.12013 -10.11551 -10.09546
 Alpha  occ. eigenvalues --  -10.09030 -10.07003  -8.67854  -6.49277  -6.48078
 Alpha  occ. eigenvalues --   -6.48066  -2.57845  -2.57493  -2.57484  -2.56521
 Alpha  occ. eigenvalues --   -2.56521  -0.83199  -0.80085  -0.77879  -0.73246
 Alpha  occ. eigenvalues --   -0.70690  -0.68717  -0.67569  -0.61407  -0.54691
 Alpha  occ. eigenvalues --   -0.53586  -0.51188  -0.42877  -0.40531  -0.38916
 Alpha  occ. eigenvalues --   -0.38712  -0.36181  -0.34324  -0.32058  -0.31308
 Alpha  occ. eigenvalues --   -0.29518  -0.28766  -0.27960  -0.26930  -0.24182
 Alpha  occ. eigenvalues --   -0.22617  -0.22293  -0.20800  -0.18491  -0.17607
 Alpha  occ. eigenvalues --   -0.16988  -0.14719  -0.09900  -0.04325  -0.03444
 Alpha  occ. eigenvalues --   -0.00653
 Alpha virt. eigenvalues --    0.09158   0.09663   0.11723   0.19217   0.21428
 Alpha virt. eigenvalues --    0.23259   0.24272   0.25188   0.27466   0.28241
 Alpha virt. eigenvalues --    0.28787   0.29847   0.31634   0.32321   0.34178

 Mulliken charges:
               1
     1  Br  -0.107870
     2  O   -0.477305
     3  O   -0.396606
     4  N   -0.073065
     5  C    0.109896
     6  C   -0.041833
     7  C    0.355973
     8  C   -0.096652
     9  C    0.072754
    10  C    0.114101
    11  C   -0.039377
    12  C    0.051613
    13  C    0.070710
    14  H    0.027884
    15  H   -0.026367
    16  H   -0.033813
    17  H   -0.053434
    18  H   -0.118885
    19  H   -0.043171
    20  H   -0.095182
    21  H   -0.083096
    22  H   -0.116273
 Sum of Mulliken charges =  -1.00000

 Dipole moment (field-independent basis, Debye):
    X=            -12.6974    Y=              6.7222    Z=             -4.0034  Tot=             14.9145
 Quadrupole moment (field-independent basis, Debye-Ang):
   XX=           -154.2308   YY=            -94.7812   ZZ=           -100.9138
   XY=             23.9816   XZ=            -16.4065   YZ=              3.7901

  Exact polarizability:     163.494       4.810     105.007      -7.403       5.377      82.427
 Approx polarizability:     216.045       6.600     173.807     -14.901      13.796     135.595

 Summary of Natural Population Analysis:

                                       Natural Population
                Natural  -----------------------------------------------
    Atom  No    Charge         Core      Valence    Rydberg      Total
 -----------------------------------------------------------------------
     Br    1   -0.00087     27.99920     6.98327    0.01840    35.00087
      O    2   -0.79220      1.99979     6.78460    0.00781     8.79220
      O    3   -0.78898      1.99972     6.77870    0.01056     8.78898
      N    4   -0.76825      1.99928     5.74335    0.02562     7.76825
      C    5    0.76569      1.99939     3.16186    0.07306     5.23431
      C    6   -0.10102      1.99896     4.07959    0.02247     6.10102
      C    7   -0.39771      1.99886     4.37827    0.02058     6.39771
      C    8   -0.00530      1.99900     3.98805    0.01824     6.00530
      C    9   -0.14630      1.99897     4.13121    0.01611     6.14630
      C   10   -0.19411      1.99887     4.17864    0.01660     6.19411
      C   11   -0.11719      1.99873     4.09689    0.02156     6.11719
      C   12   -0.20776      1.99891     4.19224    0.01662     6.20776
      C   13   -0.18391      1.99894     4.16812    0.01685     6.18391
      H   14    0.31896      0.00000     0.67471    0.00633     0.68104
      H   15    0.27743      0.00000     0.71652    0.00605     0.72257
      H   16    0.19356      0.00000     0.80235    0.00409     0.80644
      H   17    0.21088      0.00000     0.78141    0.00771     0.78912
      H   18    0.16457      0.00000     0.82984    0.00558     0.83543
      H   19    0.22169      0.00000     0.77129    0.00702     0.77831
      H   20    0.18737      0.00000     0.80946    0.00317     0.81263
      H   21    0.19448      0.00000     0.80221    0.00330     0.80552
      H   22    0.16894      0.00000     0.82581    0.00525     0.83106
 =======================================================================
   * Total *   -1.00000     51.98861    69.67841    0.33298   122.00000

 ******   16 imaginary frequencies (negative Signs) ******

                      1                      2                      3
                      A                      A                      A
 Frequencies --  -2359.1735             -1927.5886             -1434.9732
 Red. masses --      1.0772                 1.0633                 1.0375
 Frc consts  --      3.5325                 2.3277                 1.2587
 IR Inten    --    154.6594                17.5419                 4.8125

                      4                      5                      6
                      A                      A                      A
 Frequencies --  -1413.0875             -1250.9253             -1133.5082
 Red. masses --      1.0718                 1.0628                 1.1129
 Frc consts  --      1.2610                 0.9799                 0.8425
 IR Inten    --     27.6800                16.3087                 8.3434

                      7                      8                      9
                      A                      A                      A
 Frequencies --   -910.6603              -859.9306              -835.5218
 Red. masses --      1.0923                 1.0344                 1.0889
 Frc consts  --      0.5337                 0.4507                 0.4479
 IR Inten    --      8.3418                 7.1617                85.3413

                     10                     11                     12
                      A                      A                      A
 Frequencies --   -719.2977              -652.9081              -516.5779
 Red. masses --      1.0893                 1.0325                 1.3150
 Frc consts  --      0.3321                 0.2593                 0.2067
 IR Inten    --      6.3628                16.1803                18.5642

                     13                     14                     15
                      A                      A                      A
 Frequencies --   -230.5947              -199.3006              -156.4337
 Red. masses --      2.7533                 2.3170                 2.8953
 Frc consts  --      0.0863                 0.0542                 0.0417
 IR Inten    --      2.4556                 0.2601                 2.1195

                     16                     17                     18
                      A                      A                      A
 Frequencies --    -99.1626               121.9905               192.7302
 Red. masses --     11.5443                 8.7392                 8.8332
 Frc consts  --      0.0669                 0.0766                 0.1933
 IR Inten    --      5.9027                 4.2691                 0.9433

                     19                     20                     21
                      A                      A                      A
 Frequencies --    262.4419               266.0357               332.8857
 Red. masses --      3.9111                 6.0888                 5.0021
 Frc consts  --      0.1587                 0.2539                 0.3266
 IR Inten    --     12.7000                 2.3818                10.2741

                     22                     23                     24
                      A                      A                      A
 Frequencies --    372.9916               409.5578               488.9133
 Red. masses --      5.6918                 4.1199                 2.6301
 Frc consts  --      0.4665                 0.4072                 0.3704
 IR Inten    --      4.3592                 8.5039                15.9368

                     25                     26                     27
                      A                      A                      A
 Frequencies --    519.3082               535.6251               562.2441
 Red. masses --      3.1743                 7.7572                 7.7529
 Frc consts  --      0.5044                 1.3112                 1.4440
 IR Inten    --      5.4217                 2.6079                 7.2240

                     28                     29                     30
                      A                      A                      A
 Frequencies --    591.3157               641.2492               650.5194
 Red. masses --      2.4071                 2.1505                 2.0623
 Frc consts  --      0.4959                 0.5210                 0.5142
 IR Inten    --     12.8724                 4.2031                 1.4291

                     31                     32                     33
                      A                      A                      A
 Frequencies --    680.0098               735.7067               777.7537
 Red. masses --      6.5285                 2.5044                 3.9257
 Frc consts  --      1.7787                 0.7987                 1.3991
 IR Inten    --      5.4044                10.2973                 2.5833

                     34                     35                     36
                      A                      A                      A
 Frequencies --    830.7639               859.8857               899.7192
 Red. masses --      5.2286                 3.2561                 2.0325
 Frc consts  --      2.1261                 1.4185                 0.9694
 IR Inten    --     39.3118                18.1916                 2.1999

                     37                     38                     39
                      A                      A                      A
 Frequencies --    924.4184               934.8995               980.7978
 Red. masses --      2.2922                 2.7218                 4.5547
 Frc consts  --      1.1541                 1.4016                 2.5815
 IR Inten    --      7.2669                13.9792                11.0186

                     40                     41                     42
                      A                      A                      A
 Frequencies --   1069.8470              1119.2912              1136.6382
 Red. masses --      7.3043                 5.8675                 6.2634
 Frc consts  --      4.9258                 4.3310                 4.7676
 IR Inten    --     39.9278                39.2785                42.3474

                     43                     44                     45
                      A                      A                      A
 Frequencies --   1230.4790              1252.1984              1362.4625
 Red. masses --      1.3510                 6.9641                 9.9443
 Frc consts  --      1.2052                 6.4337                10.8762
 IR Inten    --     35.8738                 5.0333               179.3226

                     46                     47                     48
                      A                      A                      A
 Frequencies --   1410.5168              1454.2997              1470.3966
 Red. masses --      8.9208                 7.8394                 8.8099
 Frc consts  --     10.4571                 9.7688                11.2225
 IR Inten    --      8.7783                 7.8719                85.4546

                     49                     50                     51
                      A                      A                      A
 Frequencies --   1668.9377              1702.1844              1826.2828
 Red. masses --     10.7198                10.0235                13.0003
 Frc consts  --     17.5920                17.1113                25.5470
 IR Inten    --      0.9275                 0.3318               344.2527

                     52                     53                     54
                      A                      A                      A
 Frequencies --   4153.9985              4314.5232              4455.5603
 Red. masses --      1.0867                 1.0913                 1.0906
 Frc consts  --     11.0482                11.9691                12.7567
 IR Inten    --     24.0569                 8.4716                 0.0996

                     55                     56                     57
                      A                      A                      A
 Frequencies --   4530.8358              4531.6320              4893.8882
 Red. masses --      1.0687                 1.0781                 1.0898
 Frc consts  --     12.9264                13.0440                15.3788
 IR Inten    --      0.6156                 4.1256                 0.7315

                     58                     59                     60
                      A                      A                      A
 Frequencies --   5084.4239              5228.0599              6580.5030
 Red. masses --      1.0886                 1.0890                 1.0748
 Frc consts  --     16.5812                17.5367                27.4222
 IR Inten    --      1.6016                11.9933                 3.9226

 - Thermochemistry -
 -------------------
 Temperature   298.150 Kelvin.  Pressure   1.00000 Atm.
 Atom     1 has atomic number 35 and mass  78.91834

 Molecular mass:   241.98166 amu.
 Principal axes and moments of inertia in atomic units:
                           1         2         3
     Eigenvalues --  1204.752387737.187388109.35564
           X            0.99998   0.00531   0.00229
           Y           -0.00541   0.99892   0.04625
           Z           -0.00204  -0.04627   0.99893
 This molecule is an asymmetric top.
 Rotational symmetry number  1.
 Warning -- assumption of classical behavior for rotation
           may cause significant error
 Rotational temperatures (Kelvin)      0.07189     0.01119     0.01068
 Rotational constants (GHZ):           1.49802     0.23326     0.22255
   16 imaginary frequencies ignored.
 Zero-point vibrational energy     442909.7 (Joules/Mol)
                                  105.85796 (Kcal/Mol)
 Warning -- explicit consideration of  12 degrees of freedom as
           vibrations may cause significant error
 Vibrational temperatures:    175.52   277.30   377.60   382.77   478.95
          (Kelvin)            536.65   589.26   703.44   747.17   770.65
                              808.94   850.77   922.61   935.95   978.38
                             1058.52  1119.01  1195.28  1237.18  1294.50
                             1330.03  1345.11  1411.15  1539.27  1610.41
                             1635.37  1770.38  1801.63  1960.28  2029.42
                             2092.41  2115.57  2401.23  2449.06  2627.61
                             5976.68  6207.64  6410.56  6518.86  6520.01
                             7041.21  7315.35  7522.01  9467.88

 Zero-point correction=                           0.168695 (Hartree/Particle)
 Thermal correction to Energy=                    0.176768
 Thermal correction to Enthalpy=                  0.177712
 Thermal correction to Gibbs Free Energy=         0.133799
 Sum of electronic and zero-point Energies=          -3125.791790
 Sum of electronic and thermal Energies=             -3125.783717
 Sum of electronic and thermal Enthalpies=           -3125.782773
 Sum of electronic and thermal Free Energies=        -3125.826687

                     E (Thermal)             CV                S
                      KCal/Mol        Cal/Mol-Kelvin    Cal/Mol-Kelvin
 Total                  110.924             32.466             92.424
 Electronic               0.000              0.000              0.000
 Translational            0.889              2.981             42.352
 Rotational               0.889              2.981             32.691
 Vibrational            109.146             26.504             17.381
 Vibration     1          0.609              1.931              3.069
 Vibration     2          0.635              1.850              2.201
 Vibration     3          0.670              1.742              1.645
 Vibration     4          0.672              1.735              1.622
 Vibration     5          0.715              1.610              1.246
 Vibration     6          0.744              1.528              1.067
 Vibration     7          0.774              1.449              0.928
 Vibration     8          0.845              1.275              0.686
 Vibration     9          0.874              1.207              0.612
 Vibration    10          0.891              1.171              0.575
 Vibration    11          0.918              1.113              0.519
 Vibration    12          0.949              1.050              0.465

 Normal termination of Gaussian 16 at Mon Mar  6 10:38:34 2023.
