 Gaussian 16, Revision C.01,
 Gaussian 16:  ES64L-G16RevC.01  3-Jul-2019

 ----------------------------------------------------------------------
 #p pop=(regular,nbo,savenbos) freq=noraman def2svp empiricaldispersion
 =gd3bj output=wfx pbe1pbe
 ----------------------------------------------------------------------

 ----------------------------------------
 ZIVZUC_Complex_3_Ligand_2_ON_Cu_oriented
 ----------------------------------------
 Symbolic Z-matrix:
 Charge = -1 Multiplicity = 1

                         Standard orientation:
 ---------------------------------------------------------------------
 Center     Atomic      Atomic             Coordinates (Angstroms)
 Number     Number       Type             X           Y           Z
 ---------------------------------------------------------------------
      1          8           0       -2.167972   -1.321284    1.144363
      2          7           0       -1.582567    1.230215    1.355078
      3          6           0       -2.155733    0.809353    0.045393
      4          1           0       -1.073951    1.909302    1.115560
      5          1           0       -2.231270    1.473311    1.902160
      6          6           0       -2.606244   -0.642645    0.166255
      7          8           0       -3.345015   -1.075114   -0.729735
      8          6           0        2.835140   -0.345137    0.096402
      9          6           0        2.507276    1.027911    0.072013
     10          1           0        3.145847    1.683185    0.329257
     11          6           0        1.251312    1.399028   -0.329895
     12          1           0        1.040867    2.324855   -0.366491
     13          6           0        0.271755    0.479863   -0.687092
     14          6           0        0.597395   -0.863201   -0.653264
     15          1           0       -0.050323   -1.513838   -0.898248
     16          6           0        1.876257   -1.267260   -0.256934
     17          6           0       -1.118563    0.970770   -1.069641
     18          1           0       -1.425738    0.470102   -1.867452
     19          1           0       -1.062605    1.927702   -1.318319
     20          8           0        4.071171   -0.782002    0.455307
     21          1           0        4.381319   -0.058794    0.753874
     22          1           0       -2.949848    1.380899   -0.162531
     23          1           0        2.086625   -2.193118   -0.232276
 ---------------------------------------------------------------------

 SCF Done:  E(RPBE1PBE) =  -628.124192537     A.U. after   17 cycles

 The electronic state is 1-A.
 Alpha  occ. eigenvalues --  -19.12968 -18.92454 -18.91698 -14.17886 -10.17753
 Alpha  occ. eigenvalues --  -10.11084 -10.10773 -10.10381 -10.09683 -10.09507
 Alpha  occ. eigenvalues --  -10.08777 -10.07553 -10.07531  -1.01364  -0.82117
 Alpha  occ. eigenvalues --   -0.77161  -0.75814  -0.71729  -0.67141  -0.66371
 Alpha  occ. eigenvalues --   -0.60507  -0.54710  -0.51579  -0.48810  -0.46839
 Alpha  occ. eigenvalues --   -0.40160  -0.39342  -0.38671  -0.36043  -0.34049
 Alpha  occ. eigenvalues --   -0.32798  -0.32297  -0.31458  -0.29357  -0.27249
 Alpha  occ. eigenvalues --   -0.26250  -0.24328  -0.23247  -0.22739  -0.21619
 Alpha  occ. eigenvalues --   -0.18199  -0.16982  -0.15028  -0.11581  -0.09067
 Alpha  occ. eigenvalues --   -0.03580  -0.03225  -0.01245
 Alpha virt. eigenvalues --    0.11270   0.13447   0.17618   0.19671   0.22846
 Alpha virt. eigenvalues --    0.24570   0.25421   0.26592   0.27138   0.29395
 Alpha virt. eigenvalues --    0.30622   0.31920   0.32489   0.33173   0.34952

 Mulliken charges:
               1
     1  O   -0.439038
     2  N   -0.036253
     3  C   -0.065686
     4  H   -0.007512
     5  H    0.017911
     6  C    0.106147
     7  O   -0.437458
     8  C    0.134071
     9  C   -0.000252
    10  H   -0.131476
    11  C    0.066500
    12  H   -0.116117
    13  C   -0.098240
    14  C    0.134869
    15  H   -0.071181
    16  C    0.024139
    17  C    0.220452
    18  H   -0.027047
    19  H   -0.064222
    20  O   -0.142966
    21  H    0.092963
    22  H   -0.054242
    23  H   -0.105358
 Sum of Mulliken charges =  -1.00000

 Dipole moment (field-independent basis, Debye):
    X=              9.7316    Y=              7.1537    Z=             -1.0920  Tot=             12.1273
 Quadrupole moment (field-independent basis, Debye-Ang):
   XX=           -112.4563   YY=            -81.2055   ZZ=            -84.5685
   XY=            -12.1194   XZ=              1.5918   YZ=              4.5478

  Exact polarizability:     128.855      -2.198     100.048      12.782       0.511      73.542
 Approx polarizability:     179.391      -2.309     162.595      30.061      -0.858     116.786

 Summary of Natural Population Analysis:

                                       Natural Population
                Natural  -----------------------------------------------
    Atom  No    Charge         Core      Valence    Rydberg      Total
 -----------------------------------------------------------------------
      O    1   -0.77994      1.99976     6.77120    0.00897     8.77994
      N    2   -0.78768      1.99940     5.76329    0.02499     7.78768
      C    3   -0.09619      1.99898     4.07468    0.02253     6.09619
      H    4    0.29191      0.00000     0.70057    0.00752     0.70809
      H    5    0.30957      0.00000     0.68412    0.00631     0.69043
      C    6    0.76565      1.99940     3.15962    0.07533     5.23435
      O    7   -0.79886      1.99974     6.78915    0.00998     8.79886
      C    8    0.32046      1.99880     3.65758    0.02316     5.67954
      C    9   -0.29446      1.99901     4.27963    0.01582     6.29446
      H   10    0.16909      0.00000     0.82746    0.00345     0.83091
      C   11   -0.17800      1.99898     4.16375    0.01527     6.17800
      H   12    0.17043      0.00000     0.82605    0.00352     0.82957
      C   13   -0.02687      1.99901     4.00656    0.02130     6.02687
      C   14   -0.12270      1.99897     4.10732    0.01641     6.12270
      H   15    0.19854      0.00000     0.79827    0.00319     0.80146
      C   16   -0.24539      1.99900     4.23089    0.01550     6.24539
      C   17   -0.40642      1.99902     4.39112    0.01627     6.40642
      H   18    0.21692      0.00000     0.77499    0.00809     0.78308
      H   19    0.17829      0.00000     0.81700    0.00471     0.82171
      O   20   -0.65842      1.99969     6.64359    0.01514     8.65842
      H   21    0.42616      0.00000     0.56570    0.00814     0.57384
      H   22    0.16396      0.00000     0.82962    0.00642     0.83604
      H   23    0.18394      0.00000     0.81259    0.00346     0.81606
 =======================================================================
   * Total *   -1.00000     25.98976    69.67474    0.33550    96.00000

 ******   17 imaginary frequencies (negative Signs) ******

                      1                      2                      3
                      A                      A                      A
 Frequencies --  -1792.2245             -1727.9082             -1573.3577
 Red. masses --      1.0591                 1.0380                 1.1412
 Frc consts  --      2.0043                 1.8260                 1.6644
 IR Inten    --     93.9622                70.8015               116.5995

                      4                      5                      6
                      A                      A                      A
 Frequencies --  -1265.6976             -1203.1982             -1139.0520
 Red. masses --      1.0716                 1.0691                 1.0573
 Frc consts  --      1.0115                 0.9119                 0.8082
 IR Inten    --     59.9939                 4.5516                 0.8875

                      7                      8                      9
                      A                      A                      A
 Frequencies --  -1126.0726             -1069.0356             -1052.5773
 Red. masses --      1.1669                 1.0282                 1.0355
 Frc consts  --      0.8718                 0.6923                 0.6759
 IR Inten    --    236.4835                 1.0446                 0.4946

                     10                     11                     12
                      A                      A                      A
 Frequencies --   -895.2968              -652.9463              -639.6255
 Red. masses --      1.0516                 1.2124                 1.1093
 Frc consts  --      0.4966                 0.3046                 0.2674
 IR Inten    --      2.9467                 0.8576                 5.9816

                     13                     14                     15
                      A                      A                      A
 Frequencies --   -537.9684              -351.2346              -200.3988
 Red. masses --      1.2018                 1.0670                 3.5352
 Frc consts  --      0.2049                 0.0776                 0.0836
 IR Inten    --      5.7908                 7.0998                 2.8474

                     16                     17                     18
                      A                      A                      A
 Frequencies --   -182.8799               -89.1462                35.7949
 Red. masses --      3.4255                 9.5184                 3.6915
 Frc consts  --      0.0675                 0.0446                 0.0028
 IR Inten    --      6.6644                 1.0723                 8.6872

                     19                     20                     21
                      A                      A                      A
 Frequencies --    171.3653               203.6893               231.8981
 Red. masses --      4.4044                 4.3767                 5.0137
 Frc consts  --      0.0762                 0.1070                 0.1589
 IR Inten    --      8.7962                 0.0719                 3.8587

                     22                     23                     24
                      A                      A                      A
 Frequencies --    319.8063               381.7769               457.4058
 Red. masses --      2.9097                 2.4222                 2.6330
 Frc consts  --      0.1753                 0.2080                 0.3246
 IR Inten    --     13.3252                10.1149                11.6916

                     25                     26                     27
                      A                      A                      A
 Frequencies --    505.1893               525.8713               536.0637
 Red. masses --      3.2116                 3.6483                 4.3858
 Frc consts  --      0.4829                 0.5944                 0.7426
 IR Inten    --      2.6535                 2.4895                 4.7930

                     28                     29                     30
                      A                      A                      A
 Frequencies --    547.3430               618.7956               653.5135
 Red. masses --      2.6594                 2.5382                 3.5544
 Frc consts  --      0.4694                 0.5726                 0.8944
 IR Inten    --     43.4854                12.8943                 8.3616

                     31                     32                     33
                      A                      A                      A
 Frequencies --    686.0330               709.1437               735.2328
 Red. masses --      2.9521                 3.2904                 3.5429
 Frc consts  --      0.8186                 0.9749                 1.1284
 IR Inten    --     10.4844                 4.7770                 6.4799

                     34                     35                     36
                      A                      A                      A
 Frequencies --    764.2808               832.0555               853.6721
 Red. masses --      6.4307                 4.9601                 3.5855
 Frc consts  --      2.2132                 2.0232                 1.5395
 IR Inten    --      0.5226                15.7977                10.7971

                     37                     38                     39
                      A                      A                      A
 Frequencies --    856.4492               898.9254               912.0445
 Red. masses --      4.0255                 3.4317                 3.0655
 Frc consts  --      1.7397                 1.6338                 1.5024
 IR Inten    --     13.1728                 6.9187                 0.5384

                     40                     41                     42
                      A                      A                      A
 Frequencies --    954.9999              1010.0945              1112.0681
 Red. masses --      2.4477                 4.8502                 1.4485
 Frc consts  --      1.3152                 2.9156                 1.0555
 IR Inten    --      4.1629                 3.6192                19.3835

                     43                     44                     45
                      A                      A                      A
 Frequencies --   1147.5514              1162.0337              1194.9129
 Red. masses --      3.9087                 3.8973                 5.3751
 Frc consts  --      3.0327                 3.1006                 4.5218
 IR Inten    --      7.8408                 9.9277                 5.4823

                     46                     47                     48
                      A                      A                      A
 Frequencies --   1321.4927              1411.4423              1438.4571
 Red. masses --      7.9577                 9.6806                 7.7704
 Frc consts  --      8.1878                11.3626                 9.4730
 IR Inten    --     21.9557                13.7395                48.8579

                     49                     50                     51
                      A                      A                      A
 Frequencies --   1455.8646              1526.3851              1668.8353
 Red. masses --     11.7510                 8.9971                10.4454
 Frc consts  --     14.6746                12.3504                17.1396
 IR Inten    --    166.9255               139.7556                15.3600

                     52                     53                     54
                      A                      A                      A
 Frequencies --   1729.8978              1771.1106              4104.0545
 Red. masses --      9.6193                12.5307                 1.0866
 Frc consts  --     16.9603                23.1588                10.7835
 IR Inten    --     67.7168               441.3890                49.5578

                     55                     56                     57
                      A                      A                      A
 Frequencies --   4179.3913              4288.7178              4748.1202
 Red. masses --      1.0606                 1.1076                 1.0869
 Frc consts  --     10.9152                12.0031                14.4378
 IR Inten    --     30.3631                 8.1568                 7.5823

                     58                     59                     60
                      A                      A                      A
 Frequencies --   4762.6740              4769.9748              4779.5619
 Red. masses --      1.0913                 1.0882                 1.0913
 Frc consts  --     14.5841                14.5884                14.6885
 IR Inten    --      4.9981                 1.0906                 2.0990

                     61                     62                     63
                      A                      A                      A
 Frequencies --   5372.7916              5554.7233              5863.8393
 Red. masses --      1.0463                 1.0992                 1.0660
 Frc consts  --     17.7946                19.9826                21.5962
 IR Inten    --      3.3417                10.6817                58.5830

 - Thermochemistry -
 -------------------
 Temperature   298.150 Kelvin.  Pressure   1.00000 Atm.
 Atom     1 has atomic number  8 and mass  15.99491

 Molecular mass:   180.06607 amu.
 Principal axes and moments of inertia in atomic units:
                           1         2         3
     Eigenvalues --  1051.330823910.920794266.39412
           X            0.99993  -0.01133   0.00262
           Y            0.01125   0.99956   0.02740
           Z           -0.00293  -0.02737   0.99962
 This molecule is an asymmetric top.
 Rotational symmetry number  1.
 Warning -- assumption of classical behavior for rotation
           may cause significant error
 Rotational temperatures (Kelvin)      0.08239     0.02215     0.02030
 Rotational constants (GHZ):           1.71663     0.46146     0.42301
   17 imaginary frequencies ignored.
 Zero-point vibrational energy     477102.7 (Joules/Mol)
                                  114.03028 (Kcal/Mol)
 Warning -- explicit consideration of  12 degrees of freedom as
           vibrations may cause significant error
 Vibrational temperatures:     51.50   246.56   293.06   333.65   460.13
          (Kelvin)            549.29   658.10   726.85   756.61   771.28
                              787.50   890.31   940.26   987.05  1020.30
                             1057.84  1099.63  1197.14  1228.24  1232.24
                             1293.35  1312.23  1374.03  1453.30  1600.02
                             1651.07  1671.91  1719.21  1901.33  2030.75
                             2069.62  2094.66  2196.13  2401.08  2488.94
                             2548.23  5904.82  6013.21  6170.51  6831.49
                             6852.43  6862.93  6876.72  7730.25  7992.01
                             8436.76

 Zero-point correction=                           0.181719 (Hartree/Particle)
 Thermal correction to Energy=                    0.190090
 Thermal correction to Enthalpy=                  0.191034
 Thermal correction to Gibbs Free Energy=         0.146726
 Sum of electronic and zero-point Energies=           -627.942474
 Sum of electronic and thermal Energies=              -627.934102
 Sum of electronic and thermal Enthalpies=            -627.933158
 Sum of electronic and thermal Free Energies=         -627.977466

                     E (Thermal)             CV                S
                      KCal/Mol        Cal/Mol-Kelvin    Cal/Mol-Kelvin
 Total                  119.283             32.790             93.254
 Electronic               0.000              0.000              0.000
 Translational            0.889              2.981             41.471
 Rotational               0.889              2.981             31.240
 Vibrational            117.506             26.828             20.543
 Vibration     1          0.594              1.982              5.479
 Vibration     2          0.626              1.878              2.420
 Vibration     3          0.639              1.835              2.100
 Vibration     4          0.653              1.792              1.864
 Vibration     5          0.706              1.636              1.311
 Vibration     6          0.751              1.509              1.032
 Vibration     7          0.816              1.345              0.774
 Vibration     8          0.860              1.239              0.645
 Vibration     9          0.881              1.193              0.596
 Vibration    10          0.891              1.170              0.574
 Vibration    11          0.903              1.146              0.550
 Vibration    12          0.979              0.992              0.418

 Normal termination of Gaussian 16 at Mon Mar  6 10:38:19 2023.
