 Gaussian 16, Revision C.01,
 Gaussian 16:  ES64L-G16RevC.01  3-Jul-2019

 ----------------------------------------------------------------------
 #p pop=(regular,nbo,savenbos) freq=noraman def2svp empiricaldispersion
 =gd3bj output=wfx pbe1pbe
 ----------------------------------------------------------------------

 ----------------------------------------
 ZIXTIM_Complex_4_Ligand_1_ON_Cu_oriented
 ----------------------------------------
 Symbolic Z-matrix:
 Charge = -1 Multiplicity = 1

                         Standard orientation:
 ---------------------------------------------------------------------
 Center     Atomic      Atomic             Coordinates (Angstroms)
 Number     Number       Type             X           Y           Z
 ---------------------------------------------------------------------
      1          8           0       -1.926221   -1.865278   -1.081249
      2          8           0        0.356548   -0.140608    1.851617
      3          7           0       -2.107758   -0.851838    0.897891
      4          7           0       -0.010851   -0.942105   -0.292051
      5          6           0       -3.742568    1.294880   -0.102038
      6          1           0       -2.798148    1.394550   -0.068167
      7          6           0       -4.483039    2.340204   -0.411396
      8          1           0       -4.058939    3.171050   -0.590114
      9          6           0       -5.837816    2.262976   -0.481822
     10          1           0       -6.352168    3.034295   -0.698035
     11          6           0       -6.470216    1.045747   -0.237822
     12          1           0       -7.414649    0.968793   -0.301601
     13          6           0       -5.701672   -0.040860    0.099263
     14          1           0       -6.132405   -0.868022    0.280171
     15          6           0       -4.306596    0.028250    0.181051
     16          6           0       -3.474795   -1.190085    0.567556
     17          1           0       -3.905173   -1.680008    1.325967
     18          6           0       -3.278595   -2.123142   -0.626195
     19          1           0       -3.382090   -3.068160   -0.351258
     20          1           0       -3.934554   -1.922403   -1.338567
     21          6           0       -1.340176   -1.211985   -0.067517
     22          6           0        0.700349   -0.440845    0.692818
     23          6           0        2.147246   -0.190043    0.365156
     24          6           0        3.039041    0.105837    1.392559
     25          1           0        2.719612    0.109482    2.287361
     26          6           0        2.654265   -0.298432   -0.935476
     27          1           0        2.075079   -0.545028   -1.647936
     28          8           0        6.961974    0.866769    0.553857
     29          8           0        6.673880    0.430883   -1.541945
     30          7           0        6.262537    0.547526   -0.390676
     31          6           0        4.355482    0.391581    1.164880
     32          1           0        4.934945    0.652003    1.870301
     33          6           0        4.810247    0.283328   -0.152739
     34          6           0        3.991900   -0.048979   -1.191038
     35          1           0        4.333207   -0.106348   -2.075948
 ---------------------------------------------------------------------

 SCF Done:  E(RPBE1PBE) =  -1079.89351465     A.U. after   19 cycles

 The electronic state is 1-A.
 Alpha  occ. eigenvalues --  -19.14255 -19.13885 -19.10614 -18.99980 -14.52581
 Alpha  occ. eigenvalues --  -14.20280 -14.19800 -10.18518 -10.18366 -10.15694
 Alpha  occ. eigenvalues --  -10.15083 -10.14070 -10.13805 -10.13600 -10.13587
 Alpha  occ. eigenvalues --  -10.13073 -10.12970 -10.12583 -10.12545 -10.12191
 Alpha  occ. eigenvalues --  -10.11795 -10.11551 -10.11096  -1.15529  -0.97990
 Alpha  occ. eigenvalues --   -0.97677  -0.87251  -0.80128  -0.79767  -0.77485
 Alpha  occ. eigenvalues --   -0.74906  -0.71143  -0.69299  -0.68804  -0.68066
 Alpha  occ. eigenvalues --   -0.64800  -0.60997  -0.56339  -0.54799  -0.54284
 Alpha  occ. eigenvalues --   -0.51993  -0.51545  -0.50085  -0.47724  -0.46622
 Alpha  occ. eigenvalues --   -0.45797  -0.43372  -0.43067  -0.41709  -0.39637
 Alpha  occ. eigenvalues --   -0.39030  -0.38256  -0.37901  -0.37562  -0.36485
 Alpha  occ. eigenvalues --   -0.36198  -0.33952  -0.33353  -0.32193  -0.30727
 Alpha  occ. eigenvalues --   -0.29874  -0.29664  -0.28376  -0.27615  -0.27246
 Alpha  occ. eigenvalues --   -0.26356  -0.25920  -0.24905  -0.23951  -0.22997
 Alpha  occ. eigenvalues --   -0.22538  -0.21181  -0.18132  -0.17811  -0.16516
 Alpha  occ. eigenvalues --   -0.15982  -0.14914  -0.13050  -0.11558  -0.08481
 Alpha  occ. eigenvalues --   -0.08152
 Alpha virt. eigenvalues --    0.01802   0.08969   0.09367   0.09864   0.10389
 Alpha virt. eigenvalues --    0.17333   0.18421   0.19312   0.20970   0.21383
 Alpha virt. eigenvalues --    0.22548   0.23609   0.23810   0.24086   0.25016

 Mulliken charges:
               1
     1  O   -0.345468
     2  O   -0.336569
     3  N   -0.300808
     4  N   -0.303559
     5  C    0.097134
     6  H   -0.072090
     7  C    0.093850
     8  H   -0.096706
     9  C    0.068244
    10  H   -0.097549
    11  C    0.073792
    12  H   -0.100937
    13  C    0.057837
    14  H   -0.112488
    15  C   -0.024793
    16  C    0.019853
    17  H   -0.034322
    18  C    0.393889
    19  H   -0.031374
    20  H   -0.043186
    21  C    0.198334
    22  C    0.130221
    23  C    0.008560
    24  C    0.088625
    25  H   -0.089792
    26  C    0.096532
    27  H   -0.087296
    28  O   -0.274187
    29  O   -0.284738
    30  N    0.213117
    31  C    0.060893
    32  H   -0.095243
    33  C    0.183753
    34  C    0.041656
    35  H   -0.095184
 Sum of Mulliken charges =  -1.00000

 Dipole moment (field-independent basis, Debye):
    X=             -5.6037    Y=              0.3539    Z=             -1.9724  Tot=              5.9513
 Quadrupole moment (field-independent basis, Debye-Ang):
   XX=           -207.4717   YY=           -131.0555   ZZ=           -145.1072
   XY=             -1.8296   XZ=              7.0769   YZ=             -2.9426

  Exact polarizability:     333.489      17.712     143.628      -0.898       3.246     147.621
 Approx polarizability:     411.578      34.660     223.997      -4.960      15.391     282.868

 Summary of Natural Population Analysis:

                                       Natural Population
                Natural  -----------------------------------------------
    Atom  No    Charge         Core      Valence    Rydberg      Total
 -----------------------------------------------------------------------
      O    1   -0.57354      1.99967     6.56349    0.01038     8.57354
      O    2   -0.68080      1.99976     6.67187    0.00917     8.68080
      N    3   -0.64146      1.99929     5.62526    0.01691     7.64146
      N    4   -0.74940      1.99918     5.73311    0.01711     7.74940
      C    5   -0.15973      1.99896     4.14454    0.01623     6.15973
      H    6    0.20117      0.00000     0.79457    0.00426     0.79883
      C    7   -0.18974      1.99903     4.17606    0.01465     6.18974
      H    8    0.17623      0.00000     0.82032    0.00345     0.82377
      C    9   -0.19358      1.99911     4.17987    0.01460     6.19358
      H   10    0.16839      0.00000     0.82845    0.00316     0.83161
      C   11   -0.18835      1.99911     4.17498    0.01425     6.18835
      H   12    0.16981      0.00000     0.82707    0.00312     0.83019
      C   13   -0.20325      1.99900     4.18933    0.01492     6.20325
      H   14    0.17021      0.00000     0.82631    0.00348     0.82979
      C   15   -0.01177      1.99901     3.99209    0.02067     6.01177
      C   16   -0.05867      1.99898     4.03524    0.02445     6.05867
      H   17    0.19640      0.00000     0.79951    0.00409     0.80360
      C   18   -0.01368      1.99887     3.99607    0.01873     6.01368
      H   19    0.15844      0.00000     0.83760    0.00396     0.84156
      H   20    0.16666      0.00000     0.83006    0.00327     0.83334
      C   21    0.77538      1.99908     3.17856    0.04699     5.22462
      C   22    0.64039      1.99915     3.30437    0.05609     5.35961
      C   23   -0.04317      1.99895     4.02435    0.01988     6.04317
      C   24   -0.15041      1.99901     4.13402    0.01738     6.15041
      H   25    0.19905      0.00000     0.79482    0.00613     0.80095
      C   26   -0.14168      1.99902     4.12757    0.01509     6.14168
      H   27    0.20184      0.00000     0.79367    0.00449     0.79816
      O   28   -0.41054      1.99975     6.39590    0.01489     8.41054
      O   29   -0.42016      1.99976     6.40587    0.01453     8.42016
      N   30    0.51816      1.99934     4.42649    0.05601     6.48184
      C   31   -0.18040      1.99899     4.16532    0.01608     6.18040
      H   32    0.19901      0.00000     0.79735    0.00364     0.80099
      C   33    0.05970      1.99881     3.92037    0.02112     5.94030
      C   34   -0.19126      1.99896     4.17611    0.01619     6.19126
      H   35    0.20076      0.00000     0.79544    0.00380     0.79924
 =======================================================================
   * Total *   -1.00000     45.98077   115.48603    0.53320   162.00000

 ******   22 imaginary frequencies (negative Signs) ******

                      1                      2                      3
                      A                      A                      A
 Frequencies --  -1271.8167             -1204.8136             -1169.7114
 Red. masses --      1.0844                 1.0687                 1.0350
 Frc consts  --      1.0334                 0.9140                 0.8343
 IR Inten    --     68.6292                49.7709                 1.5736

                      4                      5                      6
                      A                      A                      A
 Frequencies --  -1161.7164             -1098.6505             -1022.8588
 Red. masses --      1.0586                 1.0268                 1.0134
 Frc consts  --      0.8417                 0.7302                 0.6247
 IR Inten    --      0.6806                 0.1186                 0.2421

                      7                      8                      9
                      A                      A                      A
 Frequencies --   -996.2911              -972.8454              -923.1464
 Red. masses --      1.0119                 1.0289                 1.0277
 Frc consts  --      0.5918                 0.5737                 0.5160
 IR Inten    --      0.9154                 0.4920                 0.2445

                     10                     11                     12
                      A                      A                      A
 Frequencies --   -862.6309              -673.3594              -666.4960
 Red. masses --      1.0709                 1.1711                 1.1482
 Frc consts  --      0.4695                 0.3128                 0.3005
 IR Inten    --      3.6840                 2.4408                 1.0552

                     13                     14                     15
                      A                      A                      A
 Frequencies --   -652.0735              -618.1708              -600.3277
 Red. masses --      1.0789                 1.1657                 1.3081
 Frc consts  --      0.2703                 0.2624                 0.2778
 IR Inten    --     17.9450                 5.3984                 1.7697

                     16                     17                     18
                      A                      A                      A
 Frequencies --   -566.3699              -436.1942              -421.6935
 Red. masses --      1.1894                 1.1979                 1.0425
 Frc consts  --      0.2248                 0.1343                 0.1092
 IR Inten    --      5.1183                 6.7643                46.7313

                     19                     20                     21
                      A                      A                      A
 Frequencies --   -308.0496              -268.4049              -213.2701
 Red. masses --      2.2174                 1.1491                 2.9379
 Frc consts  --      0.1240                 0.0488                 0.0787
 IR Inten    --      7.7303                20.3283                13.4803

                     22                     23                     24
                      A                      A                      A
 Frequencies --    -80.2331                10.5775                92.7453
 Red. masses --      5.9866                13.5384                 9.4146
 Frc consts  --      0.0227                 0.0009                 0.0477
 IR Inten    --      2.3783                 1.6329                 2.7490

                     25                     26                     27
                      A                      A                      A
 Frequencies --    110.0620               148.0692               157.3502
 Red. masses --     13.8188                 7.9131                 7.4691
 Frc consts  --      0.0986                 0.1022                 0.1090
 IR Inten    --      0.6995                 3.0267                 2.9040

                     28                     29                     30
                      A                      A                      A
 Frequencies --    182.7356               196.3042               213.3112
 Red. masses --      8.7456                 9.2483                 9.4440
 Frc consts  --      0.1721                 0.2100                 0.2532
 IR Inten    --      1.7461                 0.5526                 0.1252

                     31                     32                     33
                      A                      A                      A
 Frequencies --    244.5502               285.1617               356.9332
 Red. masses --      8.8755                10.5979                 8.9253
 Frc consts  --      0.3127                 0.5078                 0.6700
 IR Inten    --      5.3573                 0.1559                10.4997

                     34                     35                     36
                      A                      A                      A
 Frequencies --    372.7421               391.3626               434.2751
 Red. masses --      8.1997                 4.9842                 3.6155
 Frc consts  --      0.6712                 0.4498                 0.4017
 IR Inten    --     13.8402                 0.3968                 2.6048

                     37                     38                     39
                      A                      A                      A
 Frequencies --    470.1127               500.1769               517.9270
 Red. masses --      9.9559                11.2321                11.1290
 Frc consts  --      1.2964                 1.6556                 1.7589
 IR Inten    --      2.9106                 0.0992                 3.4108

                     40                     41                     42
                      A                      A                      A
 Frequencies --    546.3463               552.7282               555.6651
 Red. masses --      4.6403                 3.5345                 2.6027
 Frc consts  --      0.8161                 0.6362                 0.4735
 IR Inten    --      8.9753                 2.4608                32.1090

                     43                     44                     45
                      A                      A                      A
 Frequencies --    565.9876               622.1155               682.5927
 Red. masses --      4.8315                 8.3128                 3.5891
 Frc consts  --      0.9119                 1.8956                 0.9853
 IR Inten    --     14.7651                 2.8430                 0.5248

                     46                     47                     48
                      A                      A                      A
 Frequencies --    712.6188               725.2714               752.7891
 Red. masses --      8.9455                 2.9605                 4.3648
 Frc consts  --      2.6765                 0.9175                 1.4573
 IR Inten    --      0.7555                 4.4936                12.4469

                     49                     50                     51
                      A                      A                      A
 Frequencies --    758.8760               762.2747               782.6059
 Red. masses --      2.0386                 4.4014                 3.4133
 Frc consts  --      0.6917                 1.5068                 1.2317
 IR Inten    --     16.9633                 4.1050                22.3474

                     52                     53                     54
                      A                      A                      A
 Frequencies --    797.7056               801.2810               818.9007
 Red. masses --      3.4906                 4.5686                 7.6182
 Frc consts  --      1.3087                 1.7282                 3.0100
 IR Inten    --      8.3246                 0.4604                 3.7461

                     55                     56                     57
                      A                      A                      A
 Frequencies --    822.9117               841.8361               850.8910
 Red. masses --      4.0592                 5.1051                 7.0116
 Frc consts  --      1.6195                 2.1316                 2.9910
 IR Inten    --     20.2500                 1.3943                 4.6114

                     58                     59                     60
                      A                      A                      A
 Frequencies --    855.3166               886.7721               900.2464
 Red. masses --      5.0047                 2.8943                 8.3736
 Frc consts  --      2.1572                 1.3410                 3.9984
 IR Inten    --     19.5257                 1.4959               127.7986

                     61                     62                     63
                      A                      A                      A
 Frequencies --    939.6049               966.9854               999.4995
 Red. masses --      7.5675                 4.1103                 6.4343
 Frc consts  --      3.9364                 2.2645                 3.7872
 IR Inten    --     23.2536                10.4805               126.5785

                     64                     65                     66
                      A                      A                      A
 Frequencies --   1039.7641              1053.8726              1085.9957
 Red. masses --      6.0224                 6.1741                 7.7520
 Frc consts  --      3.8361                 4.0402                 5.3867
 IR Inten    --      9.9019                 7.9399                62.2204

                     67                     68                     69
                      A                      A                      A
 Frequencies --   1102.8415              1160.7231              1171.4016
 Red. masses --      6.2014                 5.8169                 1.3498
 Frc consts  --      4.4439                 4.6174                 1.0913
 IR Inten    --      2.8722                35.0704                 0.8434

                     70                     71                     72
                      A                      A                      A
 Frequencies --   1212.0094              1237.0491              1375.0967
 Red. masses --      6.3556                 6.7987                 9.2842
 Frc consts  --      5.5007                 6.1299                10.3433
 IR Inten    --     18.1290                 6.5003               183.3794

                     73                     74                     75
                      A                      A                      A
 Frequencies --   1380.0268              1412.5956              1421.3598
 Red. masses --      7.9057                13.4831                 9.7661
 Frc consts  --      8.8708                15.8516                11.6247
 IR Inten    --     43.9413               585.7946               360.9890

                     76                     77                     78
                      A                      A                      A
 Frequencies --   1432.2035              1446.5849              1483.5874
 Red. masses --      9.5908                 8.4359                11.6589
 Frc consts  --     11.5908                10.4009                15.1194
 IR Inten    --    102.5220                 2.0711               387.1954

                     79                     80                     81
                      A                      A                      A
 Frequencies --   1493.2383              1527.6169              1646.7841
 Red. masses --     10.1761                 9.1444                11.3327
 Frc consts  --     13.3687                12.5729                18.1075
 IR Inten    --     33.8788                 2.5405                52.7681

                     82                     83                     84
                      A                      A                      A
 Frequencies --   1654.3235              1674.6250              1682.8032
 Red. masses --     10.1146                12.9800                11.9212
 Frc consts  --     16.3095                21.4467                19.8901
 IR Inten    --     40.2207               154.3206               880.6896

                     85                     86                     87
                      A                      A                      A
 Frequencies --   1734.5660              1760.9591              1846.2373
 Red. masses --     11.1129                12.3056                10.2089
 Frc consts  --     19.6996                22.4829                20.5024
 IR Inten    --    172.3103               257.9275                 5.1568

                     88                     89                     90
                      A                      A                      A
 Frequencies --   4117.1353              4195.9864              4312.2596
 Red. masses --      1.0878                 1.0587                 1.1119
 Frc consts  --     10.8637                10.9826                12.1822
 IR Inten    --     28.2466                45.0478                18.3143

                     91                     92                     93
                      A                      A                      A
 Frequencies --   4735.8294              4756.7737              4757.2111
 Red. masses --      1.0877                 1.0879                 1.0877
 Frc consts  --     14.3730                14.5035                14.5027
 IR Inten    --      1.9481                 6.5246                 2.1777

                     94                     95                     96
                      A                      A                      A
 Frequencies --   4767.9829              4771.5978              4772.7850
 Red. masses --      1.0883                 1.0929                 1.0883
 Frc consts  --     14.5764                14.6602                14.6068
 IR Inten    --      3.4178                 3.7601                 2.1866

                     97                     98                     99
                      A                      A                      A
 Frequencies --   4775.2082              4777.5860              4790.5231
 Red. masses --      1.0922                 1.0913                 1.0911
 Frc consts  --     14.6743                14.6764                14.7532
 IR Inten    --      9.9780                 3.1264                 2.9078

 - Thermochemistry -
 -------------------
 Temperature   298.150 Kelvin.  Pressure   1.00000 Atm.
 Atom     1 has atomic number  8 and mass  15.99491

 Molecular mass:   310.08278 amu.
 Principal axes and moments of inertia in atomic units:
                           1         2         3
     Eigenvalues --  2266.53855********************
           X            1.00000  -0.00219   0.00222
           Y            0.00220   0.99999  -0.00409
           Z           -0.00221   0.00409   0.99999
 This molecule is an asymmetric top.
 Rotational symmetry number  1.
 Warning -- assumption of classical behavior for rotation
           may cause significant error
 Rotational temperatures (Kelvin)      0.03821     0.00415     0.00405
 Rotational constants (GHZ):           0.79625     0.08657     0.08437
   22 imaginary frequencies ignored.
 Zero-point vibrational energy     674414.9 (Joules/Mol)
                                  161.18902 (Kcal/Mol)
 Warning -- explicit consideration of  21 degrees of freedom as
           vibrations may cause significant error
 Vibrational temperatures:     15.22   133.44   158.35   213.04   226.39
          (Kelvin)            262.92   282.44   306.91   351.85   410.28
                              513.55   536.29   563.08   624.83   676.39
                              719.64   745.18   786.07   795.25   799.48
                              814.33   895.09   982.10  1025.30  1043.50
                             1083.10  1091.85  1096.74  1126.00  1147.72
                             1152.86  1178.22  1183.99  1211.21  1224.24
                             1230.61  1275.87  1295.25  1351.88  1391.28
                             1438.06  1495.99  1516.29  1562.51  1586.74
                             1670.02  1685.39  1743.81  1779.84  1978.46
                             1985.55  2032.41  2045.02  2060.62  2081.31
                             2134.55  2148.44  2197.90  2369.35  2380.20
                             2409.41  2421.18  2495.65  2533.63  2656.32
                             5923.64  6037.09  6204.38  6813.80  6843.94
                             6844.57  6860.06  6865.27  6866.97  6870.46
                             6873.88  6892.49

 Zero-point correction=                           0.256871 (Hartree/Particle)
 Thermal correction to Energy=                    0.270531
 Thermal correction to Enthalpy=                  0.271476
 Thermal correction to Gibbs Free Energy=         0.213911
 Sum of electronic and zero-point Energies=          -1079.636644
 Sum of electronic and thermal Energies=             -1079.622983
 Sum of electronic and thermal Enthalpies=           -1079.622039
 Sum of electronic and thermal Free Energies=        -1079.679604

                     E (Thermal)             CV                S
                      KCal/Mol        Cal/Mol-Kelvin    Cal/Mol-Kelvin
 Total                  169.761             54.854            121.155
 Electronic               0.000              0.000              0.000
 Translational            0.889              2.981             43.091
 Rotational               0.889              2.981             35.268
 Vibrational            167.984             48.893             42.796
 Vibration     1          0.593              1.987              7.900
 Vibration     2          0.602              1.954              3.601
 Vibration     3          0.606              1.941              3.268
 Vibration     4          0.617              1.905              2.697
 Vibration     5          0.621              1.894              2.581
 Vibration     6          0.630              1.863              2.300
 Vibration     7          0.636              1.845              2.167
 Vibration     8          0.644              1.821              2.015
 Vibration     9          0.660              1.772              1.770
 Vibration    10          0.683              1.701              1.503
 Vibration    11          0.732              1.561              1.135
 Vibration    12          0.744              1.528              1.068
 Vibration    13          0.759              1.489              0.995
 Vibration    14          0.795              1.396              0.845
 Vibration    15          0.827              1.316              0.737
 Vibration    16          0.856              1.250              0.658
 Vibration    17          0.873              1.210              0.615
 Vibration    18          0.902              1.148              0.552
 Vibration    19          0.908              1.134              0.539
 Vibration    20          0.911              1.127              0.533
 Vibration    21          0.922              1.105              0.512

 Normal termination of Gaussian 16 at Mon Mar  6 11:14:17 2023.
