 Gaussian 16, Revision C.01,
 Gaussian 16:  ES64L-G16RevC.01  3-Jul-2019

 ----------------------------------------------------------------------
 #p pop=(regular,nbo,savenbos) freq=noraman def2svp empiricaldispersion
 =gd3bj output=wfx pbe1pbe
 ----------------------------------------------------------------------

 ----------------------------------------
 ZODPIR_Complex_3_Ligand_1_ON_Cu_oriented
 ----------------------------------------
 Symbolic Z-matrix:
 Charge = -1 Multiplicity = 1

                         Standard orientation:
 ---------------------------------------------------------------------
 Center     Atomic      Atomic             Coordinates (Angstroms)
 Number     Number       Type             X           Y           Z
 ---------------------------------------------------------------------
      1          7           0        1.065364    1.159917   -0.403884
      2          6           0       -0.079695    1.640810    0.405726
      3          6           0       -1.312959    0.777055    0.271940
      4          6           0       -1.926228    0.641613   -0.947687
      5          6           0       -3.035542   -0.171986   -1.099696
      6          6           0       -3.541076   -0.842400   -0.051073
      7          6           0       -2.949236   -0.727853    1.183621
      8          6           0       -1.831040    0.093738    1.358677
      9          1           0        0.811199    1.192789   -1.371078
     10          1           0       -0.297588    2.521937    0.126491
     11          1           0       -1.584756    1.112243   -1.698361
     12          1           0       -3.443093   -0.256164   -1.953248
     13          1           0       -4.305872   -1.395351   -0.163260
     14          8           0        3.653024    0.755111    0.051795
     15          6           0        2.971255   -0.299977    0.205277
     16          6           0        1.479103   -0.224848   -0.066108
     17          1           0        1.032784   -0.472902    0.735068
     18          6           0        1.083001   -1.225088   -1.133669
     19          1           0        0.139375   -1.218341   -1.239467
     20          1           0        1.495348   -0.989174   -1.957211
     21          8           0        3.438657   -1.394191    0.573593
     22          1           0        0.181724    1.654220    1.318918
     23          1           0       -1.431377    0.181113    2.216078
     24          1           0       -3.301469   -1.209890    1.922703
     25          1           0        1.367230   -2.093652   -0.874593
 ---------------------------------------------------------------------

 SCF Done:  E(RPBE1PBE) =  -592.218464633     A.U. after   17 cycles

 The electronic state is 1-A.
 Alpha  occ. eigenvalues --  -18.91664 -18.90797 -14.22249 -10.12978 -10.12761
 Alpha  occ. eigenvalues --  -10.12383 -10.12196 -10.12142 -10.11937 -10.10704
 Alpha  occ. eigenvalues --  -10.08063 -10.06355 -10.02908  -0.81362  -0.79782
 Alpha  occ. eigenvalues --   -0.76995  -0.70929  -0.68951  -0.68118  -0.63833
 Alpha  occ. eigenvalues --   -0.58176  -0.55282  -0.52193  -0.50002  -0.46553
 Alpha  occ. eigenvalues --   -0.40492  -0.39460  -0.37357  -0.35740  -0.34804
 Alpha  occ. eigenvalues --   -0.33897  -0.32045  -0.29543  -0.29149  -0.27523
 Alpha  occ. eigenvalues --   -0.26697  -0.26124  -0.25434  -0.23484  -0.21018
 Alpha  occ. eigenvalues --   -0.17723  -0.17226  -0.16613  -0.15688  -0.08781
 Alpha  occ. eigenvalues --   -0.02715  -0.02528  -0.00394
 Alpha virt. eigenvalues --    0.08826   0.10128   0.17934   0.19971   0.21011
 Alpha virt. eigenvalues --    0.23104   0.23830   0.24627   0.25427   0.26700
 Alpha virt. eigenvalues --    0.28814   0.29952   0.29994   0.31015   0.32353

 Mulliken charges:
               1
     1  N   -0.263679
     2  C    0.430904
     3  C   -0.150122
     4  C    0.065594
     5  C    0.082830
     6  C    0.071621
     7  C    0.076010
     8  C    0.073395
     9  H    0.072451
    10  H   -0.062151
    11  H   -0.114081
    12  H   -0.099594
    13  H   -0.099857
    14  O   -0.443598
    15  C    0.111930
    16  C   -0.016010
    17  H   -0.074436
    18  C    0.212171
    19  H   -0.066290
    20  H   -0.052495
    21  O   -0.447583
    22  H   -0.065545
    23  H   -0.100353
    24  H   -0.095555
    25  H   -0.045559
 Sum of Mulliken charges =  -1.00000

 Dipole moment (field-independent basis, Debye):
    X=            -15.4802    Y=              1.0314    Z=             -1.4768  Tot=             15.5847
 Quadrupole moment (field-independent basis, Debye-Ang):
   XX=           -143.9946   YY=            -87.2959   ZZ=            -73.9022
   XY=              4.6250   XZ=             -4.7494   YZ=              1.1456

  Exact polarizability:     135.870      16.456      92.265       3.238      -4.607      96.960
 Approx polarizability:     179.752      34.934     148.105       6.658     -14.279     159.231

 Summary of Natural Population Analysis:

                                       Natural Population
                Natural  -----------------------------------------------
    Atom  No    Charge         Core      Valence    Rydberg      Total
 -----------------------------------------------------------------------
      N    1   -0.67179      1.99948     5.65499    0.01733     7.67179
      C    2   -0.14380      1.99894     4.12616    0.01870     6.14380
      C    3   -0.02487      1.99898     4.00903    0.01686     6.02487
      C    4   -0.19000      1.99896     4.17455    0.01649     6.19000
      C    5   -0.17756      1.99908     4.16379    0.01469     6.17756
      C    6   -0.21085      1.99908     4.19723    0.01454     6.21085
      C    7   -0.17239      1.99912     4.15879    0.01449     6.17239
      C    8   -0.18787      1.99898     4.17390    0.01499     6.18787
      H    9    0.33531      0.00000     0.65818    0.00651     0.66469
      H   10    0.17249      0.00000     0.82422    0.00329     0.82751
      H   11    0.17335      0.00000     0.82181    0.00484     0.82665
      H   12    0.17050      0.00000     0.82620    0.00329     0.82950
      H   13    0.17118      0.00000     0.82552    0.00330     0.82882
      O   14   -0.78320      1.99976     6.77463    0.00881     8.78320
      C   15    0.77985      1.99942     3.14749    0.07324     5.22015
      C   16   -0.08723      1.99887     4.06478    0.02357     6.08723
      H   17    0.15371      0.00000     0.83903    0.00726     0.84629
      C   18   -0.54633      1.99912     4.53704    0.01017     6.54633
      H   19    0.16326      0.00000     0.83286    0.00388     0.83674
      H   20    0.16971      0.00000     0.82633    0.00396     0.83029
      O   21   -0.80669      1.99975     6.79716    0.00978     8.80669
      H   22    0.17093      0.00000     0.82495    0.00412     0.82907
      H   23    0.17869      0.00000     0.81823    0.00308     0.82131
      H   24    0.16940      0.00000     0.82747    0.00313     0.83060
      H   25    0.19421      0.00000     0.79845    0.00734     0.80579
 =======================================================================
   * Total *   -1.00000     25.98952    69.70280    0.30767    96.00000

 ******   19 imaginary frequencies (negative Signs) ******

                      1                      2                      3
                      A                      A                      A
 Frequencies --  -1465.5279             -1279.3227             -1240.8756
 Red. masses --      1.0098                 1.0845                 1.0313
 Frc consts  --      1.2778                 1.0458                 0.9356
 IR Inten    --      0.2078                73.6768                 1.1671

                      4                      5                      6
                      A                      A                      A
 Frequencies --  -1166.7576             -1121.3667             -1118.1328
 Red. masses --      1.0617                 1.0298                 1.0625
 Frc consts  --      0.8515                 0.7630                 0.7826
 IR Inten    --      0.4476                 1.8299                 1.8304

                      7                      8                      9
                      A                      A                      A
 Frequencies --  -1110.5082             -1050.9765              -953.0464
 Red. masses --      1.0494                 1.0126                 1.0310
 Frc consts  --      0.7625                 0.6590                 0.5518
 IR Inten    --     18.3255                 0.6012                 0.4656

                     10                     11                     12
                      A                      A                      A
 Frequencies --   -811.7391              -684.5199              -659.6842
 Red. masses --      1.1443                 1.2659                 1.1964
 Frc consts  --      0.4442                 0.3495                 0.3068
 IR Inten    --      3.8303                 3.4888                 0.9069

                     13                     14                     15
                      A                      A                      A
 Frequencies --   -637.9977              -624.6456              -527.7793
 Red. masses --      1.1846                 1.2189                 1.1808
 Frc consts  --      0.2841                 0.2802                 0.1938
 IR Inten    --      0.6562                 2.0173                 7.2454

                     16                     17                     18
                      A                      A                      A
 Frequencies --   -518.8781              -384.5775              -370.5765
 Red. masses --      1.2116                 1.4462                 1.1705
 Frc consts  --      0.1922                 0.1260                 0.0947
 IR Inten    --      1.8280                 2.0443                23.3409

                     19                     20                     21
                      A                      A                      A
 Frequencies --   -317.4002                58.2926               136.1749
 Red. masses --      1.0584                 8.8880                 8.8833
 Frc consts  --      0.0628                 0.0178                 0.0971
 IR Inten    --     15.6179                 3.9970                 2.5262

                     22                     23                     24
                      A                      A                      A
 Frequencies --    204.7368               244.2167               292.4550
 Red. masses --      6.2503                 3.6331                 2.4829
 Frc consts  --      0.1544                 0.1277                 0.1251
 IR Inten    --      4.6549                26.0027                12.3745

                     25                     26                     27
                      A                      A                      A
 Frequencies --    323.7171               390.4874               436.1750
 Red. masses --      3.9376                 2.6349                 4.5187
 Frc consts  --      0.2431                 0.2367                 0.5065
 IR Inten    --     10.7395                33.6086                 2.3116

                     28                     29                     30
                      A                      A                      A
 Frequencies --    487.2653               521.0222               542.4348
 Red. masses --      5.3318                 6.2653                11.2661
 Frc consts  --      0.7459                 1.0021                 1.9531
 IR Inten    --      6.1718                 2.6073                 0.0859

                     31                     32                     33
                      A                      A                      A
 Frequencies --    604.1236               641.5568               708.4828
 Red. masses --      4.7208                 5.9574                 4.7636
 Frc consts  --      1.0151                 1.4447                 1.4088
 IR Inten    --      6.0694                11.0785                19.6122

                     34                     35                     36
                      A                      A                      A
 Frequencies --    720.5471               739.0177               747.7528
 Red. masses --      2.9810                 1.5715                 2.5308
 Frc consts  --      0.9119                 0.5057                 0.8337
 IR Inten    --     10.5353                15.7395                17.6992

                     37                     38                     39
                      A                      A                      A
 Frequencies --    781.2276               794.2952               839.2450
 Red. masses --      5.2395                 2.9114                 5.5858
 Frc consts  --      1.8841                 1.0822                 2.3180
 IR Inten    --     41.1729                 3.9658                 7.4951

                     40                     41                     42
                      A                      A                      A
 Frequencies --    869.6251               901.2801               908.9806
 Red. masses --      5.8789                 1.3687                 3.1543
 Frc consts  --      2.6195                 0.6550                 1.5355
 IR Inten    --     11.0102                 2.4122                 4.9341

                     43                     44                     45
                      A                      A                      A
 Frequencies --    919.7749              1056.2479              1059.7635
 Red. masses --      1.3039                 3.5696                 5.6899
 Frc consts  --      0.6499                 2.3464                 3.7651
 IR Inten    --      2.7779                 7.3938                 1.4498

                     46                     47                     48
                      A                      A                      A
 Frequencies --   1100.6868              1156.9593              1175.3934
 Red. masses --      3.9882                 3.9937                 4.1779
 Frc consts  --      2.8468                 3.1496                 3.4008
 IR Inten    --      1.0335                26.1449                35.6507

                     49                     50                     51
                      A                      A                      A
 Frequencies --   1215.4347              1372.6497              1381.9111
 Red. masses --      6.9736                 3.6733                 1.6158
 Frc consts  --      6.0698                 4.0778                 1.8181
 IR Inten    --      1.4003                 3.2932                 9.5843

                     52                     53                     54
                      A                      A                      A
 Frequencies --   1476.4600              1479.4538              1515.8351
 Red. masses --     10.0615                 8.1504                 8.6367
 Frc consts  --     12.9228                10.5107                11.6923
 IR Inten    --    229.8613                 4.1920                 5.2504

                     55                     56                     57
                      A                      A                      A
 Frequencies --   1683.3540              1747.9747              1769.4387
 Red. masses --     10.6751                12.7178                 9.9958
 Frc consts  --     17.8227                22.8947                18.4390
 IR Inten    --     17.0128               429.0599                 1.8590

                     58                     59                     60
                      A                      A                      A
 Frequencies --   3759.8882              4584.2797              4665.4703
 Red. masses --      1.0751                 1.0320                 1.0582
 Frc consts  --      8.9550                12.7786                13.5707
 IR Inten    --      4.9667                15.8457                18.9338

                     61                     62                     63
                      A                      A                      A
 Frequencies --   4734.2949              4749.4557              4762.6131
 Red. masses --      1.0869                 1.0862                 1.0879
 Frc consts  --     14.3529                14.4361                14.5386
 IR Inten    --      7.8487                 0.2429                 1.5950

                     64                     65                     66
                      A                      A                      A
 Frequencies --   4765.6779              4773.1376              4776.6075
 Red. masses --      1.0897                 1.0910                 1.0934
 Frc consts  --     14.5811                14.6445                14.6985
 IR Inten    --      4.8558                 5.7260                 3.3324

                     67                     68                     69
                      A                      A                      A
 Frequencies --   4792.1101              4806.8192              4810.6528
 Red. masses --      1.1064                 1.1063                 1.1113
 Frc consts  --     14.9691                15.0611                15.1533
 IR Inten    --     14.7383                 3.3815                 4.6259

 - Thermochemistry -
 -------------------
 Temperature   298.150 Kelvin.  Pressure   1.00000 Atm.
 Atom     1 has atomic number  7 and mass  14.00307

 Molecular mass:   178.08680 amu.
 Principal axes and moments of inertia in atomic units:
                           1         2         3
     Eigenvalues --   991.168554298.853884459.12924
           X            0.99998   0.00496  -0.00348
           Y           -0.00474   0.99819   0.05993
           Z            0.00378  -0.05991   0.99820
 This molecule is an asymmetric top.
 Rotational symmetry number  1.
 Warning -- assumption of classical behavior for rotation
           may cause significant error
 Rotational temperatures (Kelvin)      0.08739     0.02015     0.01942
 Rotational constants (GHZ):           1.82082     0.41982     0.40473
   19 imaginary frequencies ignored.
 Zero-point vibrational energy     532251.2 (Joules/Mol)
                                  127.21110 (Kcal/Mol)
 Warning -- explicit consideration of  12 degrees of freedom as
           vibrations may cause significant error
 Vibrational temperatures:     83.87   195.93   294.57   351.37   420.78
          (Kelvin)            465.76   561.82   627.56   701.07   749.63
                              780.44   869.20   923.06  1019.35  1036.71
                             1063.28  1075.85  1124.01  1142.81  1207.49
                             1251.20  1296.74  1307.82  1323.35  1519.71
                             1524.76  1583.64  1664.61  1691.13  1748.74
                             1974.94  1988.26  2124.30  2128.60  2180.95
                             2421.97  2514.95  2545.83  5409.64  6595.76
                             6712.57  6811.59  6833.41  6852.34  6856.75
                             6867.48  6872.47  6894.78  6915.94  6921.46

 Zero-point correction=                           0.202724 (Hartree/Particle)
 Thermal correction to Energy=                    0.211469
 Thermal correction to Enthalpy=                  0.212413
 Thermal correction to Gibbs Free Energy=         0.167767
 Sum of electronic and zero-point Energies=           -592.015741
 Sum of electronic and thermal Energies=              -592.006996
 Sum of electronic and thermal Enthalpies=            -592.006052
 Sum of electronic and thermal Free Energies=         -592.050698

                     E (Thermal)             CV                S
                      KCal/Mol        Cal/Mol-Kelvin    Cal/Mol-Kelvin
 Total                  132.699             34.422             93.966
 Electronic               0.000              0.000              0.000
 Translational            0.889              2.981             41.438
 Rotational               0.889              2.981             31.319
 Vibrational            130.921             28.460             21.208
 Vibration     1          0.596              1.974              4.514
 Vibration     2          0.614              1.917              2.857
 Vibration     3          0.640              1.833              2.090
 Vibration     4          0.660              1.772              1.772
 Vibration     5          0.688              1.688              1.460
 Vibration     6          0.708              1.628              1.291
 Vibration     7          0.758              1.491              0.998
 Vibration     8          0.797              1.391              0.839
 Vibration     9          0.843              1.278              0.691
 Vibration    10          0.876              1.203              0.608
 Vibration    11          0.898              1.156              0.560
 Vibration    12          0.963              1.023              0.443

 Normal termination of Gaussian 16 at Mon Mar  6 10:41:24 2023.
