 Gaussian 16, Revision A.03,
 Gaussian 16:  ES64L-G16RevA.03 25-Dec-2016

 ----------------------------------------------------------------------
 #p pop=(regular,nbo,savenbos) freq=noraman def2svp empiricaldispersion
 =gd3bj output=wfx pbe1pbe
 ----------------------------------------------------------------------

 ----------
 009_lig_c2
 ----------
 Symbolic Z-matrix:
 Charge =  0 Multiplicity = 1

                         Standard orientation:
 ---------------------------------------------------------------------
 Center     Atomic      Atomic             Coordinates (Angstroms)
 Number     Number       Type             X           Y           Z
 ---------------------------------------------------------------------
      1          6           0       -5.517256   -1.407242   -1.484357
      2          6           0       -4.466258   -2.309783   -1.298332
      3          6           0       -3.450470   -2.039235   -0.382408
      4          6           0       -3.510780   -0.845565    0.334040
      5          6           0       -4.560029    0.059605    0.157770
      6          6           0       -5.574874   -0.219223   -0.755410
      7          6           0       -4.425687    1.247026    1.074080
      8          6           0       -3.050263    1.078559    1.722069
      9          8           0       -2.079459    1.983266    1.137156
     10          6           0       -1.106628    1.244204    0.614890
     11          6           0       -0.000010    2.024695   -0.000070
     12          6           0        1.106724    1.244365   -0.615029
     13          7           0        1.221201   -0.022364   -0.696583
     14          6           0        2.509318   -0.319802   -1.329753
     15          6           0        3.510794   -0.845546   -0.334230
     16          6           0        3.450342   -2.039425    0.381847
     17          6           0        4.465920   -2.310228    1.297919
     18          6           0        5.516861   -1.407729    1.484446
     19          6           0        5.574641   -0.219498    0.755849
     20          6           0        4.559995    0.059574   -0.157477
     21          6           0        4.425844    1.247273   -1.073469
     22          6           0        3.050583    1.078960   -1.721847
     23          8           0        2.079644    1.983543   -1.136950
     24          7           0       -1.221086   -0.022546    0.696201
     25          6           0       -2.509112   -0.320108    1.329516
     26          1           0       -6.304566   -1.635857   -2.206862
     27          1           0       -4.437820   -3.237143   -1.874756
     28          1           0       -2.626618   -2.739542   -0.217859
     29          1           0       -6.403350    0.478941   -0.900586
     30          1           0       -5.215124    1.248993    1.843446
     31          1           0       -4.488355    2.214280    0.551686
     32          1           0       -3.050058    1.279959    2.801871
     33          1           0        0.426694    2.697446    0.762501
     34          1           0       -0.426820    2.697393   -0.762641
     35          1           0        2.325998   -1.019196   -2.159042
     36          1           0        2.626529   -2.739698    0.216912
     37          1           0        4.437373   -3.237758    1.874067
     38          1           0        6.304012   -1.636543    2.207060
     39          1           0        6.403076    0.478628    0.901410
     40          1           0        4.488372    2.214370   -0.550783
     41          1           0        5.215464    1.249466   -1.842657
     42          1           0        3.050651    1.280630   -2.801597
     43          1           0       -2.325669   -1.019725    2.158589
 ---------------------------------------------------------------------

 SCF Done:  E(RPBE1PBE) =  -1069.08086687     A.U. after   14 cycles

 The electronic state is 1-A.
 Alpha  occ. eigenvalues --  -19.24413 -19.24407 -14.35434 -14.35430 -10.31545
 Alpha  occ. eigenvalues --  -10.31543 -10.29420 -10.29419 -10.26323 -10.26322
 Alpha  occ. eigenvalues --  -10.26028 -10.24310 -10.24310 -10.24007 -10.24007
 Alpha  occ. eigenvalues --  -10.23688 -10.23688 -10.23635 -10.23635 -10.23521
 Alpha  occ. eigenvalues --  -10.23521 -10.23484 -10.23484 -10.23453 -10.23452
 Alpha  occ. eigenvalues --   -1.11905  -1.11710  -0.92012  -0.91428  -0.89021
 Alpha  occ. eigenvalues --   -0.88299  -0.84167  -0.83009  -0.79541  -0.76953
 Alpha  occ. eigenvalues --   -0.76561  -0.74296  -0.72940  -0.70770  -0.69641
 Alpha  occ. eigenvalues --   -0.65090  -0.63814  -0.60896  -0.60675  -0.59162
 Alpha  occ. eigenvalues --   -0.59064  -0.58440  -0.55743  -0.53663  -0.53313
 Alpha  occ. eigenvalues --   -0.51500  -0.50914  -0.50334  -0.48767  -0.47433
 Alpha  occ. eigenvalues --   -0.46916  -0.46133  -0.46041  -0.45611  -0.44760
 Alpha  occ. eigenvalues --   -0.44455  -0.43166  -0.42864  -0.42413  -0.42327
 Alpha  occ. eigenvalues --   -0.41698  -0.41032  -0.40385  -0.39596  -0.38302
 Alpha  occ. eigenvalues --   -0.37452  -0.36391  -0.36382  -0.36245  -0.35786
 Alpha  occ. eigenvalues --   -0.34968  -0.34856  -0.34753  -0.34186  -0.28385
 Alpha  occ. eigenvalues --   -0.26300  -0.26165  -0.25962  -0.25651  -0.25115
 Alpha  occ. eigenvalues --   -0.24691  -0.24408
 Alpha virt. eigenvalues --   -0.00894  -0.00832   0.00055   0.00059   0.03430
 Alpha virt. eigenvalues --    0.03938   0.07681   0.07951   0.08229   0.08343
 Alpha virt. eigenvalues --    0.09325   0.09990   0.10337   0.11560   0.12083

 Mulliken charges:
               1
     1  C   -0.011082
     2  C   -0.023480
     3  C    0.001298
     4  C   -0.013267
     5  C   -0.119994
     6  C   -0.040721
     7  C    0.147506
     8  C    0.082813
     9  O   -0.332442
    10  C    0.065549
    11  C    0.135863
    12  C    0.065545
    13  N   -0.195669
    14  C    0.034732
    15  C   -0.013261
    16  C    0.001296
    17  C   -0.023479
    18  C   -0.011083
    19  C   -0.040720
    20  C   -0.119996
    21  C    0.147510
    22  C    0.082804
    23  O   -0.332441
    24  N   -0.195674
    25  C    0.034730
    26  H    0.018875
    27  H    0.019844
    28  H    0.016358
    29  H    0.002302
    30  H    0.055587
    31  H    0.053376
    32  H    0.042815
    33  H    0.079682
    34  H    0.079691
    35  H    0.047987
    36  H    0.016360
    37  H    0.019844
    38  H    0.018874
    39  H    0.002301
    40  H    0.053377
    41  H    0.055588
    42  H    0.042817
    43  H    0.047988
 Sum of Mulliken charges =  -0.00000

 Dipole moment (field-independent basis, Debye):
    X=              0.0001    Y=              1.1288    Z=              0.0003  Tot=              1.1288
 Quadrupole moment (field-independent basis, Debye-Ang):
   XX=           -125.6838   YY=           -137.9059   ZZ=           -135.6478
   XY=              0.0005   XZ=             -2.4060   YZ=             -0.0002

  Exact polarizability: 259.600  -0.000 223.561  29.538   0.005 181.243
 Approx polarizability: 336.444  -0.002 376.529  46.726   0.015 278.511

 Summary of Natural Population Analysis:

                                       Natural Population
                Natural  -----------------------------------------------
    Atom  No    Charge         Core      Valence    Rydberg      Total
 -----------------------------------------------------------------------
      C    1   -0.22470      1.99896     4.21061    0.01512     6.22470
      C    2   -0.22742      1.99896     4.21340    0.01506     6.22742
      C    3   -0.20186      1.99886     4.18653    0.01647     6.20186
      C    4   -0.04871      1.99881     4.03075    0.01915     6.04871
      C    5   -0.04094      1.99882     4.02483    0.01729     6.04094
      C    6   -0.22077      1.99887     4.20629    0.01561     6.22077
      C    7   -0.47845      1.99906     4.46547    0.01392     6.47845
      C    8    0.10981      1.99890     3.86781    0.02348     5.89019
      O    9   -0.57819      1.99965     6.56705    0.01148     8.57819
      C   10    0.61623      1.99908     3.34135    0.04334     5.38377
      C   11   -0.55193      1.99903     4.53706    0.01584     6.55193
      C   12    0.61623      1.99908     3.34135    0.04334     5.38377
      N   13   -0.52714      1.99928     5.51090    0.01697     7.52714
      C   14   -0.08540      1.99892     4.06196    0.02452     6.08540
      C   15   -0.04871      1.99881     4.03076    0.01915     6.04871
      C   16   -0.20186      1.99886     4.18653    0.01647     6.20186
      C   17   -0.22742      1.99896     4.21340    0.01506     6.22742
      C   18   -0.22470      1.99896     4.21061    0.01512     6.22470
      C   19   -0.22076      1.99887     4.20629    0.01561     6.22076
      C   20   -0.04094      1.99882     4.02483    0.01729     6.04094
      C   21   -0.47845      1.99906     4.46547    0.01392     6.47845
      C   22    0.10981      1.99890     3.86781    0.02348     5.89019
      O   23   -0.57819      1.99965     6.56705    0.01148     8.57819
      N   24   -0.52714      1.99928     5.51089    0.01697     7.52714
      C   25   -0.08540      1.99892     4.06196    0.02452     6.08540
      H   26    0.23021      0.00000     0.76709    0.00270     0.76979
      H   27    0.23046      0.00000     0.76685    0.00269     0.76954
      H   28    0.24094      0.00000     0.75609    0.00297     0.75906
      H   29    0.23007      0.00000     0.76716    0.00277     0.76993
      H   30    0.24564      0.00000     0.75103    0.00332     0.75436
      H   31    0.25609      0.00000     0.74033    0.00357     0.74391
      H   32    0.22641      0.00000     0.77053    0.00307     0.77359
      H   33    0.27347      0.00000     0.72232    0.00421     0.72653
      H   34    0.27347      0.00000     0.72232    0.00421     0.72653
      H   35    0.25021      0.00000     0.74649    0.00330     0.74979
      H   36    0.24094      0.00000     0.75609    0.00297     0.75906
      H   37    0.23046      0.00000     0.76685    0.00269     0.76954
      H   38    0.23020      0.00000     0.76709    0.00270     0.76980
      H   39    0.23007      0.00000     0.76716    0.00277     0.76993
      H   40    0.25609      0.00000     0.74033    0.00357     0.74391
      H   41    0.24564      0.00000     0.75103    0.00332     0.75436
      H   42    0.22641      0.00000     0.77052    0.00307     0.77359
      H   43    0.25022      0.00000     0.74649    0.00330     0.74978
 =======================================================================
   * Total *   -0.00000     49.97539   123.48674    0.53787   174.00000

 ******    2 imaginary frequencies (negative Signs) ******

                      1                      2                      3
                      A                      A                      A
 Frequencies --    -64.0341               -56.9604                26.8470
 Red. masses --      6.5699                 6.0955                 4.6178
 Frc consts  --      0.0159                 0.0117                 0.0020
 IR Inten    --      0.1002                 0.1648                 0.0002

                      4                      5                      6
                      A                      A                      A
 Frequencies --     50.5563                52.6145                79.0281
 Red. masses --      6.3309                 3.9218                 4.7543
 Frc consts  --      0.0095                 0.0064                 0.0175
 IR Inten    --      0.1116                 0.0680                 0.5395

                      7                      8                      9
                      A                      A                      A
 Frequencies --     90.0719               142.7221               163.0930
 Red. masses --      3.6185                 4.0665                 3.6556
 Frc consts  --      0.0173                 0.0488                 0.0573
 IR Inten    --      0.6506                 1.6327                 0.3960

                     10                     11                     12
                      A                      A                      A
 Frequencies --    186.9936               196.7305               236.3545
 Red. masses --      5.3280                 2.7798                 3.6783
 Frc consts  --      0.1098                 0.0634                 0.1211
 IR Inten    --      0.7218                 9.1403                 4.2908

                     13                     14                     15
                      A                      A                      A
 Frequencies --    267.2158               289.0167               310.5081
 Red. masses --      4.9580                 4.3226                 5.0060
 Frc consts  --      0.2086                 0.2127                 0.2844
 IR Inten    --      2.9647                 0.1876                 4.3959

                     16                     17                     18
                      A                      A                      A
 Frequencies --    356.8867               402.6318               435.6861
 Red. masses --      3.3341                 3.9738                 3.2659
 Frc consts  --      0.2502                 0.3795                 0.3653
 IR Inten    --      2.4259                 0.0703                 4.0753

                     19                     20                     21
                      A                      A                      A
 Frequencies --    448.8675               453.8927               456.6750
 Red. masses --      3.4109                 3.0023                 2.7361
 Frc consts  --      0.4049                 0.3644                 0.3362
 IR Inten    --      0.4842                 3.0680                 5.3966

                     22                     23                     24
                      A                      A                      A
 Frequencies --    522.6338               526.1629               537.5816
 Red. masses --      4.2751                 4.3483                 3.5706
 Frc consts  --      0.6880                 0.7093                 0.6080
 IR Inten    --      0.7583                 0.2008                 1.1964

                     25                     26                     27
                      A                      A                      A
 Frequencies --    546.6097               565.4947               591.7242
 Red. masses --      4.5945                 5.4633                 5.6265
 Frc consts  --      0.8088                 1.0293                 1.1607
 IR Inten    --      1.0120                 1.7216                 0.3041

                     28                     29                     30
                      A                      A                      A
 Frequencies --    640.8749               655.1061               660.7062
 Red. masses --      4.7913                 5.7403                 5.4661
 Frc consts  --      1.1595                 1.4515                 1.4059
 IR Inten    --     18.9283                 3.3383                 4.7157

                     31                     32                     33
                      A                      A                      A
 Frequencies --    668.4702               730.2329               730.7161
 Red. masses --      5.3207                 2.2384                 3.0129
 Frc consts  --      1.4008                 0.7032                 0.9478
 IR Inten    --      2.1186                17.6900                 5.9960

                     34                     35                     36
                      A                      A                      A
 Frequencies --    740.7500               754.7459               775.5495
 Red. masses --      3.7092                 2.1076                 1.4951
 Frc consts  --      1.1991                 0.7074                 0.5298
 IR Inten    --      0.3548                 1.8758                58.3068

                     37                     38                     39
                      A                      A                      A
 Frequencies --    780.0619               794.5925               806.5401
 Red. masses --      2.0864                 4.4621                 4.6157
 Frc consts  --      0.7480                 1.6599                 1.7691
 IR Inten    --     20.6665                 1.1559                 4.9737

                     40                     41                     42
                      A                      A                      A
 Frequencies --    852.2300               854.1575               870.7697
 Red. masses --      3.6949                 3.7467                 1.7580
 Frc consts  --      1.5811                 1.6106                 0.7854
 IR Inten    --      0.0132                 4.0082                 0.1407

                     43                     44                     45
                      A                      A                      A
 Frequencies --    871.2138               878.6557               886.8090
 Red. masses --      1.7765                 4.4827                 4.9565
 Frc consts  --      0.7944                 2.0390                 2.2966
 IR Inten    --     11.4775                21.1184                 6.6423

                     46                     47                     48
                      A                      A                      A
 Frequencies --    909.2346               910.0248               934.2747
 Red. masses --      1.8882                 1.9471                 2.2240
 Frc consts  --      0.9197                 0.9500                 1.1437
 IR Inten    --      0.5581                 8.9478                 0.0006

                     49                     50                     51
                      A                      A                      A
 Frequencies --    935.4915               956.9335               979.0122
 Red. masses --      2.1235                 2.5511                 1.5821
 Frc consts  --      1.0949                 1.3764                 0.8934
 IR Inten    --      0.2038                 3.3706                 0.3025

                     52                     53                     54
                      A                      A                      A
 Frequencies --    979.5437              1013.8639              1017.0494
 Red. masses --      1.5590                 5.0743                 2.4408
 Frc consts  --      0.8814                 3.0732                 1.4876
 IR Inten    --      0.1991                 2.8348                26.9989

                     55                     56                     57
                      A                      A                      A
 Frequencies --   1018.0780              1018.5151              1040.0150
 Red. masses --      1.3245                 1.6737                 3.1195
 Frc consts  --      0.8089                 1.0230                 1.9880
 IR Inten    --      0.0242                 9.1413                 2.2295

                     58                     59                     60
                      A                      A                      A
 Frequencies --   1040.7592              1054.6028              1056.9378
 Red. masses --      2.6250                 1.7387                 1.8714
 Frc consts  --      1.6752                 1.1393                 1.2317
 IR Inten    --     48.9263                 1.1658                 7.2959

                     61                     62                     63
                      A                      A                      A
 Frequencies --   1057.5066              1058.0692              1081.3266
 Red. masses --      1.9358                 1.8016                 4.1025
 Frc consts  --      1.2755                 1.1883                 2.8262
 IR Inten    --      2.7391                27.6088                32.4683

                     64                     65                     66
                      A                      A                      A
 Frequencies --   1093.2003              1123.0429              1125.2055
 Red. masses --      4.3240                 1.8039                 1.8841
 Frc consts  --      3.0447                 1.3405                 1.4055
 IR Inten    --      1.1578                 9.8402                 1.6881

                     67                     68                     69
                      A                      A                      A
 Frequencies --   1167.1262              1167.1783              1184.9021
 Red. masses --      1.0942                 1.0938                 1.2423
 Frc consts  --      0.8782                 0.8779                 1.0276
 IR Inten    --      0.8901                 0.3170                 0.4853

                     70                     71                     72
                      A                      A                      A
 Frequencies --   1187.5003              1195.4354              1196.3251
 Red. masses --      1.2507                 2.0238                 1.9950
 Frc consts  --      1.0391                 1.7040                 1.6822
 IR Inten    --      1.2139                34.7997                 1.6619

                     73                     74                     75
                      A                      A                      A
 Frequencies --   1200.3652              1207.7741              1221.9048
 Red. masses --      1.1677                 1.9492                 1.6445
 Frc consts  --      0.9913                 1.6753                 1.4467
 IR Inten    --      0.0427               189.0913                10.9953

                     76                     77                     78
                      A                      A                      A
 Frequencies --   1222.5923              1239.8796              1240.9497
 Red. masses --      1.6471                 1.5498                 1.5777
 Frc consts  --      1.4506                 1.4037                 1.4314
 IR Inten    --      2.2339                 3.8828                 4.3176

                     79                     80                     81
                      A                      A                      A
 Frequencies --   1249.4457              1259.2701              1298.5087
 Red. masses --      1.4657                 1.4413                 1.6208
 Frc consts  --      1.3481                 1.3466                 1.6101
 IR Inten    --     22.9417                24.1732                 5.4506

                     82                     83                     84
                      A                      A                      A
 Frequencies --   1309.1609              1312.6815              1324.6190
 Red. masses --      1.7999                 1.7193                 1.9471
 Frc consts  --      1.8176                 1.7455                 2.0129
 IR Inten    --     15.4270                 1.0414                 6.3806

                     85                     86                     87
                      A                      A                      A
 Frequencies --   1337.6112              1337.8998              1343.0058
 Red. masses --      2.2591                 1.9362                 1.9310
 Frc consts  --      2.3815                 2.0420                 2.0521
 IR Inten    --      4.4784                 1.0712                 3.2453

                     88                     89                     90
                      A                      A                      A
 Frequencies --   1356.1011              1405.7207              1408.7300
 Red. masses --      1.5633                 1.2564                 5.5511
 Frc consts  --      1.6938                 1.4627                 6.4905
 IR Inten    --      0.5526                39.1662                 4.3102

                     91                     92                     93
                      A                      A                      A
 Frequencies --   1408.8498              1431.6720              1435.3341
 Red. masses --      5.3570                 1.3110                 1.1184
 Frc consts  --      6.2647                 1.5832                 1.3575
 IR Inten    --      6.6413                12.0411                14.7653

                     94                     95                     96
                      A                      A                      A
 Frequencies --   1444.4539              1505.2812              1507.1165
 Red. masses --      1.9406                 3.0381                 2.9659
 Frc consts  --      2.3855                 4.0558                 3.9692
 IR Inten    --      1.2482                 7.7624                 6.2628

                     97                     98                     99
                      A                      A                      A
 Frequencies --   1517.0209              1529.2700              1529.4415
 Red. masses --      4.2958                 3.1670                 3.1809
 Frc consts  --      5.8248                 4.3638                 4.3840
 IR Inten    --    166.9340                10.4583                17.0786

                    100                    101                    102
                      A                      A                      A
 Frequencies --   1674.9943              1675.0237              1695.7202
 Red. masses --      7.3547                 7.3522                 7.3537
 Frc consts  --     12.1575                12.1537                12.4584
 IR Inten    --      0.4003                 0.1222                 3.7053

                    103                    104                    105
                      A                      A                      A
 Frequencies --   1695.7600              1748.7104              1774.5238
 Red. masses --      7.3499                11.1877                10.9668
 Frc consts  --     12.4526                20.1570                20.3466
 IR Inten    --      0.0220                54.2949               215.3668

                    106                    107                    108
                      A                      A                      A
 Frequencies --   3072.8261              3072.8615              3076.7906
 Red. masses --      1.0643                 1.0643                 1.0641
 Frc consts  --      5.9210                 5.9210                 5.9349
 IR Inten    --     16.7852                12.2144                 2.6465

                    109                    110                    111
                      A                      A                      A
 Frequencies --   3107.3670              3107.4419              3120.6178
 Red. masses --      1.0886                 1.0886                 1.0999
 Frc consts  --      6.1932                 6.1936                 6.3106
 IR Inten    --      8.1317                12.0768                 0.0909

                    112                    113                    114
                      A                      A                      A
 Frequencies --   3128.1556              3128.1849              3134.3531
 Red. masses --      1.1009                 1.1009                 1.0934
 Frc consts  --      6.3470                 6.3471                 6.3289
 IR Inten    --      5.6278                 5.2829                61.9475

                    115                    116                    117
                      A                      A                      A
 Frequencies --   3134.4016              3199.1770              3199.1896
 Red. masses --      1.0934                 1.0870                 1.0870
 Frc consts  --      6.3288                 6.5547                 6.5547
 IR Inten    --      1.9308                 1.4308                 1.4011

                    118                    119                    120
                      A                      A                      A
 Frequencies --   3205.5616              3205.5869              3215.3406
 Red. masses --      1.0911                 1.0910                 1.0956
 Frc consts  --      6.6055                 6.6055                 6.6735
 IR Inten    --      1.2014                 1.3436                17.4929

                    121                    122                    123
                      A                      A                      A
 Frequencies --   3215.3560              3227.3297              3227.3464
 Red. masses --      1.0956                 1.0997                 1.0997
 Frc consts  --      6.6736                 6.7486                 6.7487
 IR Inten    --      6.8627                16.2892                10.8557

 - Thermochemistry -
 -------------------
 Temperature   298.150 Kelvin.  Pressure   1.00000 Atm.
 Atom     1 has atomic number  6 and mass  12.00000

 Molecular mass:   330.13683 amu.
 Principal axes and moments of inertia in atomic units:
                           1         2         3
     Eigenvalues --  3644.30608********************
           X            1.00000  -0.00000   0.00158
           Y            0.00000   1.00000   0.00001
           Z           -0.00158  -0.00001   1.00000
 This molecule is an asymmetric top.
 Rotational symmetry number  1.
 Warning -- assumption of classical behavior for rotation
           may cause significant error
 Rotational temperatures (Kelvin)      0.02377     0.00505     0.00477
 Rotational constants (GHZ):           0.49522     0.10522     0.09947
    2 imaginary frequencies ignored.
 Zero-point vibrational energy     921227.5 (Joules/Mol)
                                  220.17866 (Kcal/Mol)
 Warning -- explicit consideration of  25 degrees of freedom as
           vibrations may cause significant error
 Vibrational temperatures:     38.63    72.74    75.70   113.70   129.59
          (Kelvin)            205.35   234.65   269.04   283.05   340.06
                              384.46   415.83   446.75   513.48   579.30
                              626.86   645.82   653.05   657.05   751.95
                              757.03   773.46   786.45   813.62   851.36
                              922.08   942.55   950.61   961.78  1050.64
                             1051.34  1065.77  1085.91  1115.84  1122.34
                             1143.24  1160.43  1226.17  1228.94  1252.84
                             1253.48  1264.19  1275.92  1308.19  1309.32
                             1344.21  1345.96  1376.81  1408.58  1409.34
                             1458.72  1463.31  1464.79  1465.42  1496.35
                             1497.42  1517.34  1520.70  1521.52  1522.33
                             1555.79  1572.87  1615.81  1618.92  1679.23
                             1679.31  1704.81  1708.55  1719.96  1721.25
                             1727.06  1737.72  1758.05  1759.04  1783.91
                             1785.45  1797.67  1811.81  1868.26  1883.59
                             1888.66  1905.83  1924.52  1924.94  1932.29
                             1951.13  2022.52  2026.85  2027.02  2059.86
                             2065.13  2078.25  2165.76  2168.40  2182.65
                             2200.28  2200.53  2409.94  2409.99  2439.76
                             2439.82  2516.00  2553.14  4421.11  4421.16
                             4426.82  4470.81  4470.92  4489.87  4500.72
                             4500.76  4509.64  4509.70  4602.90  4602.92
                             4612.09  4612.12  4626.16  4626.18  4643.41
                             4643.43

 Zero-point correction=                           0.350877 (Hartree/Particle)
 Thermal correction to Energy=                    0.367620
 Thermal correction to Enthalpy=                  0.368564
 Thermal correction to Gibbs Free Energy=         0.305134
 Sum of electronic and zero-point Energies=          -1068.729990
 Sum of electronic and thermal Energies=             -1068.713247
 Sum of electronic and thermal Enthalpies=           -1068.712303
 Sum of electronic and thermal Free Energies=        -1068.775732

                     E (Thermal)             CV                S
                      KCal/Mol        Cal/Mol-Kelvin    Cal/Mol-Kelvin
 Total                  230.685             70.775            133.498
 Electronic               0.000              0.000              0.000
 Translational            0.889              2.981             43.278
 Rotational               0.889              2.981             35.382
 Vibrational            228.907             64.814             54.838
 Vibration     1          0.593              1.984              6.050
 Vibration     2          0.595              1.977              4.796
 Vibration     3          0.596              1.977              4.717
 Vibration     4          0.600              1.963              3.915
 Vibration     5          0.602              1.956              3.659
 Vibration     6          0.616              1.910              2.767
 Vibration     7          0.623              1.888              2.514
 Vibration     8          0.632              1.858              2.257
 Vibration     9          0.636              1.844              2.163
 Vibration    10          0.655              1.785              1.830
 Vibration    11          0.672              1.733              1.614
 Vibration    12          0.686              1.694              1.480
 Vibration    13          0.699              1.654              1.360
 Vibration    14          0.732              1.561              1.136
 Vibration    15          0.768              1.464              0.953
 Vibration    16          0.796              1.392              0.840
 Vibration    17          0.808              1.363              0.799
 Vibration    18          0.812              1.352              0.784
 Vibration    19          0.815              1.346              0.776
 Vibration    20          0.878              1.200              0.604
 Vibration    21          0.881              1.192              0.596
 Vibration    22          0.893              1.167              0.571
 Vibration    23          0.902              1.147              0.551
 Vibration    24          0.921              1.106              0.513
 Vibration    25          0.949              1.049              0.464

 Normal termination of Gaussian 16 at Fri Nov 18 10:20:39 2022.
