 Gaussian 16, Revision A.03,
 Gaussian 16:  ES64L-G16RevA.03 25-Dec-2016

 ----------------------------------------------------------------------
 #p pop=(regular,nbo,savenbos) freq=noraman def2svp empiricaldispersion
 =gd3bj output=wfx pbe1pbe
 ----------------------------------------------------------------------

 ----------
 031_lig_c2
 ----------
 Symbolic Z-matrix:
 Charge =  0 Multiplicity = 1

                         Standard orientation:
 ---------------------------------------------------------------------
 Center     Atomic      Atomic             Coordinates (Angstroms)
 Number     Number       Type             X           Y           Z
 ---------------------------------------------------------------------
      1          6           0        3.025608   -2.415642   -1.021899
      2          6           0        3.621429   -1.158087   -0.385085
      3          6           0        3.726291   -0.058214   -1.443047
      4          6           0        5.007312   -1.493619    0.170894
      5          6           0        2.736840   -0.705297    0.804221
      6          6           0        3.147641    0.623370    1.455159
      7          8           0        2.167510    1.566293    0.976228
      8          6           0        1.174446    0.843339    0.458615
      9          6           0        0.000106    1.605156   -0.000012
     10          6           0       -1.174189    0.843263   -0.458633
     11          7           0       -1.363245   -0.417653   -0.378975
     12          6           0       -2.736708   -0.705291   -0.804137
     13          6           0       -3.621581   -1.157920    0.385069
     14          6           0       -3.026470   -2.415856    1.021759
     15          6           0       -5.007599   -1.492779   -0.171002
     16          6           0       -3.725987   -0.058224    1.443261
     17          6           0       -3.147444    0.623372   -1.455186
     18          8           0       -2.167117    1.566209   -0.976572
     19          6           0       -0.286405    2.943040    0.679667
     20          6           0        0.286483    2.943132   -0.679500
     21          7           0        1.363332   -0.417624    0.379151
     22          1           0        2.830318   -3.196707   -0.272861
     23          1           0        3.718861   -2.815170   -1.778378
     24          1           0        2.070720   -2.215184   -1.532499
     25          1           0        4.348534   -0.401945   -2.283250
     26          1           0        4.184922    0.865600   -1.055083
     27          1           0        2.735328    0.190820   -1.853784
     28          1           0        4.944958   -2.295853    0.922556
     29          1           0        5.498084   -0.624412    0.637934
     30          1           0        5.666288   -1.843075   -0.638256
     31          1           0        2.686840   -1.527916    1.533603
     32          1           0        4.139267    0.988759    1.162220
     33          1           0        3.078552    0.601243    2.553128
     34          1           0       -2.686676   -1.527992   -1.533444
     35          1           0       -2.071517   -2.216003    1.532475
     36          1           0       -3.719996   -2.815098    1.778131
     37          1           0       -2.831483   -3.196921    0.272641
     38          1           0       -4.945561   -2.294765   -0.922968
     39          1           0       -5.498118   -0.623246   -0.637674
     40          1           0       -5.666650   -1.842333    0.638041
     41          1           0       -4.183907    0.865983    1.055412
     42          1           0       -2.734956    0.190052    1.854297
     43          1           0       -4.348661   -0.401742    2.283234
     44          1           0       -4.138969    0.988854   -1.162006
     45          1           0       -3.078684    0.601199   -2.553169
     46          1           0       -1.343075    3.189493    0.799067
     47          1           0        0.365675    3.185488    1.520595
     48          1           0       -0.365600    3.185644   -1.520408
     49          1           0        1.343121    3.189680   -0.798883
 ---------------------------------------------------------------------

 SCF Done:  E(RPBE1PBE) =  -922.899612115     A.U. after   14 cycles

 The electronic state is 1-A.
 Alpha  occ. eigenvalues --  -19.24457 -19.24453 -14.34955 -14.34951 -10.31358
 Alpha  occ. eigenvalues --  -10.31357 -10.28641 -10.28640 -10.27125 -10.25622
 Alpha  occ. eigenvalues --  -10.25620 -10.25170 -10.25142 -10.24162 -10.24161
 Alpha  occ. eigenvalues --  -10.22297 -10.22297 -10.21764 -10.21763 -10.21026
 Alpha  occ. eigenvalues --  -10.21025  -1.11888  -1.11647  -0.91655  -0.90753
 Alpha  occ. eigenvalues --   -0.90582  -0.83485  -0.83218  -0.76872  -0.76832
 Alpha  occ. eigenvalues --   -0.69712  -0.69614  -0.69138  -0.68887  -0.67223
 Alpha  occ. eigenvalues --   -0.65024  -0.64817  -0.62378  -0.60524  -0.55807
 Alpha  occ. eigenvalues --   -0.55073  -0.53941  -0.52940  -0.51734  -0.51218
 Alpha  occ. eigenvalues --   -0.50909  -0.47801  -0.47127  -0.46087  -0.45930
 Alpha  occ. eigenvalues --   -0.44937  -0.44830  -0.44473  -0.44232  -0.42112
 Alpha  occ. eigenvalues --   -0.41474  -0.40700  -0.40295  -0.39521  -0.39223
 Alpha  occ. eigenvalues --   -0.39110  -0.38412  -0.37981  -0.36939  -0.36577
 Alpha  occ. eigenvalues --   -0.36545  -0.36502  -0.36094  -0.34423  -0.34277
 Alpha  occ. eigenvalues --   -0.33881  -0.33358  -0.33139  -0.32794  -0.32744
 Alpha  occ. eigenvalues --   -0.31309  -0.27811  -0.24424  -0.24390  -0.24095
 Alpha virt. eigenvalues --    0.02509   0.03465   0.06135   0.06328   0.08614
 Alpha virt. eigenvalues --    0.08777   0.09229   0.09536   0.10221   0.10366
 Alpha virt. eigenvalues --    0.11516   0.12209   0.12339   0.12345   0.12956

 Mulliken charges:
               1
     1  C    0.035664
     2  C   -0.380137
     3  C    0.005529
     4  C    0.023375
     5  C   -0.016108
     6  C    0.245626
     7  O   -0.356677
     8  C    0.205518
     9  C   -0.316775
    10  C    0.205549
    11  N   -0.191193
    12  C   -0.016102
    13  C   -0.380131
    14  C    0.035650
    15  C    0.023350
    16  C    0.005521
    17  C    0.245629
    18  O   -0.356693
    19  C   -0.013156
    20  C   -0.013100
    21  N   -0.191209
    22  H    0.028918
    23  H    0.025251
    24  H    0.057027
    25  H    0.034009
    26  H    0.027456
    27  H    0.055256
    28  H    0.034122
    29  H    0.024389
    30  H    0.036920
    31  H    0.030754
    32  H    0.042952
    33  H    0.045661
    34  H    0.030762
    35  H    0.057016
    36  H    0.025260
    37  H    0.028912
    38  H    0.034127
    39  H    0.024399
    40  H    0.036920
    41  H    0.027454
    42  H    0.055261
    43  H    0.034007
    44  H    0.042945
    45  H    0.045660
    46  H    0.079085
    47  H    0.078135
    48  H    0.078137
    49  H    0.079078
 Sum of Mulliken charges =  -0.00000

 Dipole moment (field-independent basis, Debye):
    X=             -0.0001    Y=              1.1114    Z=              0.0003  Tot=              1.1114
 Quadrupole moment (field-independent basis, Debye-Ang):
   XX=           -115.9643   YY=           -130.1836   ZZ=           -124.4776
   XY=              0.0002   XZ=              4.5948   YZ=              0.0009

  Exact polarizability: 217.945   0.001 200.788   5.121   0.001 166.375
 Approx polarizability: 261.770   0.002 301.357   7.309  -0.002 240.903

 Summary of Natural Population Analysis:

                                       Natural Population
                Natural  -----------------------------------------------
    Atom  No    Charge         Core      Valence    Rydberg      Total
 -----------------------------------------------------------------------
      C    1   -0.64888      1.99918     4.63516    0.01454     6.64888
      C    2   -0.08313      1.99886     4.06763    0.01664     6.08313
      C    3   -0.66093      1.99918     4.64792    0.01383     6.66093
      C    4   -0.65004      1.99918     4.63736    0.01350     6.65004
      C    5   -0.08711      1.99893     4.06049    0.02768     6.08711
      C    6   -0.08187      1.99903     4.06313    0.01971     6.08187
      O    7   -0.58182      1.99966     6.57172    0.01044     8.58182
      C    8    0.61531      1.99897     3.33985    0.04586     5.38469
      C    9   -0.18119      1.99879     4.15883    0.02357     6.18119
      C   10    0.61533      1.99897     3.33984    0.04586     5.38467
      N   11   -0.53782      1.99930     5.52194    0.01659     7.53782
      C   12   -0.08710      1.99893     4.06048    0.02768     6.08710
      C   13   -0.08313      1.99886     4.06762    0.01664     6.08313
      C   14   -0.64888      1.99918     4.63515    0.01454     6.64888
      C   15   -0.65004      1.99918     4.63737    0.01350     6.65004
      C   16   -0.66093      1.99918     4.64793    0.01383     6.66093
      C   17   -0.08187      1.99903     4.06313    0.01971     6.08187
      O   18   -0.58183      1.99966     6.57173    0.01044     8.58183
      C   19   -0.40090      1.99911     4.38669    0.01510     6.40090
      C   20   -0.40091      1.99911     4.38670    0.01510     6.40091
      N   21   -0.53782      1.99930     5.52194    0.01659     7.53782
      H   22    0.22442      0.00000     0.77312    0.00247     0.77558
      H   23    0.21891      0.00000     0.77853    0.00256     0.78109
      H   24    0.24599      0.00000     0.75111    0.00290     0.75401
      H   25    0.22931      0.00000     0.76816    0.00253     0.77069
      H   26    0.22005      0.00000     0.77742    0.00252     0.77995
      H   27    0.23646      0.00000     0.76057    0.00296     0.76354
      H   28    0.22509      0.00000     0.77227    0.00263     0.77491
      H   29    0.21786      0.00000     0.77964    0.00250     0.78214
      H   30    0.22988      0.00000     0.76756    0.00256     0.77012
      H   31    0.24381      0.00000     0.75282    0.00336     0.75619
      H   32    0.21190      0.00000     0.78516    0.00294     0.78810
      H   33    0.21239      0.00000     0.78446    0.00315     0.78761
      H   34    0.24381      0.00000     0.75282    0.00336     0.75619
      H   35    0.24598      0.00000     0.75112    0.00290     0.75402
      H   36    0.21892      0.00000     0.77852    0.00256     0.78108
      H   37    0.22441      0.00000     0.77312    0.00247     0.77559
      H   38    0.22510      0.00000     0.77227    0.00263     0.77490
      H   39    0.21786      0.00000     0.77964    0.00250     0.78214
      H   40    0.22988      0.00000     0.76755    0.00256     0.77012
      H   41    0.22005      0.00000     0.77743    0.00252     0.77995
      H   42    0.23648      0.00000     0.76056    0.00296     0.76352
      H   43    0.22930      0.00000     0.76817    0.00253     0.77070
      H   44    0.21188      0.00000     0.78518    0.00294     0.78812
      H   45    0.21239      0.00000     0.78446    0.00314     0.78761
      H   46    0.24482      0.00000     0.75216    0.00303     0.75518
      H   47    0.24688      0.00000     0.74999    0.00313     0.75312
      H   48    0.24689      0.00000     0.74998    0.00313     0.75311
      H   49    0.24482      0.00000     0.75215    0.00303     0.75518
 =======================================================================
   * Total *   -0.00000     41.98159   117.52857    0.48984   160.00000

 ******    2 imaginary frequencies (negative Signs) ******

                      1                      2                      3
                      A                      A                      A
 Frequencies --    -60.0310               -41.3464                49.9683
 Red. masses --      5.0782                 4.4394                 3.6292
 Frc consts  --      0.0108                 0.0045                 0.0053
 IR Inten    --      0.2139                 0.4801                 0.4718

                      4                      5                      6
                      A                      A                      A
 Frequencies --     51.7769                60.4250                72.2013
 Red. masses --      3.6443                 3.1550                 2.7504
 Frc consts  --      0.0058                 0.0068                 0.0084
 IR Inten    --      0.1501                 0.1603                 0.0293

                      7                      8                      9
                      A                      A                      A
 Frequencies --     83.3391               124.7546               154.1472
 Red. masses --      3.9760                 4.2865                 2.9747
 Frc consts  --      0.0163                 0.0393                 0.0416
 IR Inten    --      0.2857                 0.8736                 0.2002

                     10                     11                     12
                      A                      A                      A
 Frequencies --    193.1071               202.6833               211.5130
 Red. masses --      1.4717                 1.0976                 1.8631
 Frc consts  --      0.0323                 0.0266                 0.0491
 IR Inten    --      2.7940                 0.2819                 2.7373

                     13                     14                     15
                      A                      A                      A
 Frequencies --    235.5426               237.1713               247.3143
 Red. masses --      2.2567                 2.7083                 1.2390
 Frc consts  --      0.0738                 0.0898                 0.0447
 IR Inten    --      0.0001                 0.3541                 0.1840

                     16                     17                     18
                      A                      A                      A
 Frequencies --    249.7542               263.3628               266.6964
 Red. masses --      1.2283                 1.3698                 1.1665
 Frc consts  --      0.0451                 0.0560                 0.0489
 IR Inten    --      0.0008                 0.0605                 0.0145

                     19                     20                     21
                      A                      A                      A
 Frequencies --    276.6484               281.1699               294.6813
 Red. masses --      1.9650                 1.9200                 1.9958
 Frc consts  --      0.0886                 0.0894                 0.1021
 IR Inten    --      0.0992                 0.1190                 0.4694

                     22                     23                     24
                      A                      A                      A
 Frequencies --    295.5299               327.9729               342.6652
 Red. masses --      2.0472                 3.2266                 2.5504
 Frc consts  --      0.1053                 0.2045                 0.1764
 IR Inten    --      0.9080                 0.3346                 1.2729

                     25                     26                     27
                      A                      A                      A
 Frequencies --    355.1302               361.9373               375.2203
 Red. masses --      2.4191                 3.1733                 3.6163
 Frc consts  --      0.1798                 0.2449                 0.3000
 IR Inten    --      0.0150                 0.7990                 1.6772

                     28                     29                     30
                      A                      A                      A
 Frequencies --    395.9723               397.7778               407.0890
 Red. masses --      2.6501                 2.3909                 2.7197
 Frc consts  --      0.2448                 0.2229                 0.2656
 IR Inten    --      1.1636                 0.5624                 5.5156

                     31                     32                     33
                      A                      A                      A
 Frequencies --    450.2098               477.6824               497.7929
 Red. masses --      3.2567                 2.4929                 2.5609
 Frc consts  --      0.3889                 0.3351                 0.3739
 IR Inten    --      8.0541                 0.2382                 5.7991

                     34                     35                     36
                      A                      A                      A
 Frequencies --    549.2631               562.8397               699.3552
 Red. masses --      3.7060                 4.5493                 4.5262
 Frc consts  --      0.6587                 0.8491                 1.3043
 IR Inten    --      4.9965                12.3709                 1.3722

                     37                     38                     39
                      A                      A                      A
 Frequencies --    719.8802               752.8966               757.9838
 Red. masses --      3.6615                 3.6003                 4.4881
 Frc consts  --      1.1180                 1.2024                 1.5193
 IR Inten    --      1.8191                 0.0412                 9.3347

                     40                     41                     42
                      A                      A                      A
 Frequencies --    773.1715               800.4578               817.8663
 Red. masses --      1.7852                 1.2591                 5.7892
 Frc consts  --      0.6288                 0.4753                 2.2816
 IR Inten    --      0.8694                 0.8326                 0.0541

                     43                     44                     45
                      A                      A                      A
 Frequencies --    818.1084               870.3435               870.6743
 Red. masses --      5.7719                 2.0210                 2.0351
 Frc consts  --      2.2761                 0.9020                 0.9090
 IR Inten    --      6.1008                 1.0060                 4.7972

                     46                     47                     48
                      A                      A                      A
 Frequencies --    895.4386               942.8856               942.9602
 Red. masses --      9.2141                 1.4303                 1.3819
 Frc consts  --      4.3529                 0.7492                 0.7240
 IR Inten    --      0.7098                 1.5902                 3.5384

                     49                     50                     51
                      A                      A                      A
 Frequencies --    944.5925               947.1767               951.7848
 Red. masses --      1.7663                 1.3931                 2.3878
 Frc consts  --      0.9285                 0.7364                 1.2745
 IR Inten    --      0.0460                 3.0054                 0.0933

                     52                     53                     54
                      A                      A                      A
 Frequencies --    952.7666               952.9712               969.6309
 Red. masses --      1.4497                 1.6100                 1.2211
 Frc consts  --      0.7754                 0.8614                 0.6764
 IR Inten    --      0.0942                 1.8228                 0.1036

                     55                     56                     57
                      A                      A                      A
 Frequencies --    977.2455               984.8918               987.8051
 Red. masses --      3.3771                 1.7256                 1.8323
 Frc consts  --      1.9002                 0.9862                 1.0534
 IR Inten    --     48.5539                 0.0846                14.0493

                     58                     59                     60
                      A                      A                      A
 Frequencies --   1009.8690              1014.7657              1018.7923
 Red. masses --      2.8106                 1.8916                 2.2283
 Frc consts  --      1.6888                 1.1476                 1.3627
 IR Inten    --     16.3779                 0.4287                18.5155

                     61                     62                     63
                      A                      A                      A
 Frequencies --   1022.5806              1043.2601              1055.7773
 Red. masses --      2.5277                 1.9225                 1.7415
 Frc consts  --      1.5573                 1.2328                 1.1437
 IR Inten    --     36.3424                16.0417                 8.4972

                     64                     65                     66
                      A                      A                      A
 Frequencies --   1058.2541              1062.6747              1064.8448
 Red. masses --      1.8943                 1.7304                 2.0424
 Frc consts  --      1.2499                 1.1513                 1.3645
 IR Inten    --      0.7850                 1.0307                 2.5397

                     67                     68                     69
                      A                      A                      A
 Frequencies --   1076.1323              1085.3018              1090.5252
 Red. masses --      1.8815                 2.5069                 1.3511
 Frc consts  --      1.2838                 1.7397                 0.9467
 IR Inten    --      9.5747                17.7974                 2.5043

                     70                     71                     72
                      A                      A                      A
 Frequencies --   1113.2865              1171.6531              1194.1493
 Red. masses --      3.8055                 3.2245                 1.2936
 Frc consts  --      2.7790                 2.6080                 1.0868
 IR Inten    --      7.9202               266.2244                 0.0255

                     73                     74                     75
                      A                      A                      A
 Frequencies --   1212.9479              1213.3374              1230.9540
 Red. masses --      1.3695                 1.4050                 1.5745
 Frc consts  --      1.1871                 1.2186                 1.4056
 IR Inten    --      4.7344                 4.2142                12.4141

                     76                     77                     78
                      A                      A                      A
 Frequencies --   1231.2457              1247.6486              1247.6888
 Red. masses --      1.5240                 1.9676                 1.9537
 Frc consts  --      1.3612                 1.8046                 1.7919
 IR Inten    --     34.4914                 0.0461                 0.5955

                     79                     80                     81
                      A                      A                      A
 Frequencies --   1264.6080              1276.7617              1280.7832
 Red. masses --      1.9938                 1.9783                 2.3344
 Frc consts  --      1.8787                 1.9000                 2.2562
 IR Inten    --     27.6419                 0.4001                 2.0486

                     82                     83                     84
                      A                      A                      A
 Frequencies --   1286.1486              1290.2729              1334.0408
 Red. masses --      2.2618                 2.1388                 1.6006
 Frc consts  --      2.2044                 2.0979                 1.6783
 IR Inten    --      4.7536                 1.0065                 0.2096

                     85                     86                     87
                      A                      A                      A
 Frequencies --   1338.1810              1357.1469              1363.8180
 Red. masses --      1.4451                 1.7371                 1.6398
 Frc consts  --      1.5247                 1.8851                 1.7970
 IR Inten    --      3.1848                 1.9633                 7.5917

                     88                     89                     90
                      A                      A                      A
 Frequencies --   1379.2986              1379.8860              1385.6450
 Red. masses --      1.3383                 1.3386                 1.4470
 Frc consts  --      1.5001                 1.5017                 1.6369
 IR Inten    --      0.1248                17.0407                14.3761

                     91                     92                     93
                      A                      A                      A
 Frequencies --   1385.6713              1406.0803              1406.1635
 Red. masses --      1.4462                 1.2558                 1.2700
 Frc consts  --      1.6361                 1.4628                 1.4795
 IR Inten    --      4.9598                22.4661                 4.6935

                     94                     95                     96
                      A                      A                      A
 Frequencies --   1414.5920              1430.3027              1442.8270
 Red. masses --      1.0896                 2.4863                 1.0454
 Frc consts  --      1.2846                 2.9968                 1.2822
 IR Inten    --      8.0680                 0.4721                 0.9815

                     97                     98                     99
                      A                      A                      A
 Frequencies --   1443.4342              1453.6156              1454.0667
 Red. masses --      1.0617                 1.0468                 1.0488
 Frc consts  --      1.3034                 1.3032                 1.3066
 IR Inten    --      0.0137                 2.8259                 0.0902

                    100                    101                    102
                      A                      A                      A
 Frequencies --   1458.1517              1458.9518              1467.8794
 Red. masses --      1.0446                 1.0461                 1.1318
 Frc consts  --      1.3086                 1.3119                 1.4368
 IR Inten    --      0.1532                 0.4613                10.6010

                    103                    104                    105
                      A                      A                      A
 Frequencies --   1472.6635              1475.1557              1476.8093
 Red. masses --      1.1491                 1.0947                 1.2099
 Frc consts  --      1.4683                 1.4035                 1.5547
 IR Inten    --      1.3375                 1.0103                 0.3912

                    106                    107                    108
                      A                      A                      A
 Frequencies --   1480.0118              1485.2978              1489.7721
 Red. masses --      1.3616                 1.1118                 1.1251
 Frc consts  --      1.7573                 1.4452                 1.4713
 IR Inten    --     13.8086                 4.1861                 0.4639

                    109                    110                    111
                      A                      A                      A
 Frequencies --   1492.7220              1496.7053              1526.5932
 Red. masses --      1.0999                 1.1429                 3.9857
 Frc consts  --      1.4440                 1.5085                 5.4727
 IR Inten    --     31.4586                 7.5486               125.4640

                    112                    113                    114
                      A                      A                      A
 Frequencies --   1735.0669              1761.6704              3047.1668
 Red. masses --     11.2247                11.2867                 1.0367
 Frc consts  --     19.9093                20.6380                 5.6713
 IR Inten    --    125.6653               326.0670                27.8755

                    115                    116                    117
                      A                      A                      A
 Frequencies --   3047.1898              3050.4367              3050.4924
 Red. masses --      1.0367                 1.0372                 1.0372
 Frc consts  --      5.6713                 5.6866                 5.6867
 IR Inten    --     16.7579                14.1629                25.9829

                    118                    119                    120
                      A                      A                      A
 Frequencies --   3057.1118              3057.1956              3088.6578
 Red. masses --      1.0382                 1.0382                 1.0729
 Frc consts  --      5.7169                 5.7173                 6.0303
 IR Inten    --     16.1047                20.4788                15.9944

                    121                    122                    123
                      A                      A                      A
 Frequencies --   3088.7101              3100.7603              3101.0806
 Red. masses --      1.0729                 1.0790                 1.0791
 Frc consts  --      6.0304                 6.1125                 6.1144
 IR Inten    --     20.1603                69.6404                12.7596

                    124                    125                    126
                      A                      A                      A
 Frequencies --   3138.6074              3138.6554              3140.9473
 Red. masses --      1.1031                 1.1031                 1.1026
 Frc consts  --      6.4022                 6.4025                 6.4091
 IR Inten    --      5.7080                 8.8231                22.6317

                    127                    128                    129
                      A                      A                      A
 Frequencies --   3141.0165              3145.7344              3145.7968
 Red. masses --      1.1026                 1.1032                 1.1032
 Frc consts  --      6.4092                 6.4319                 6.4322
 IR Inten    --     46.0406                 4.6431                 4.6195

                    130                    131                    132
                      A                      A                      A
 Frequencies --   3148.4151              3148.4375              3149.7437
 Red. masses --      1.1039                 1.1039                 1.1025
 Frc consts  --      6.4471                 6.4472                 6.4442
 IR Inten    --      3.2872                14.5791                66.6633

                    133                    134                    135
                      A                      A                      A
 Frequencies --   3149.8431              3158.4454              3158.4807
 Red. masses --      1.1024                 1.1037                 1.1037
 Frc consts  --      6.4444                 6.4870                 6.4872
 IR Inten    --      2.8212                33.4614                 8.0373

                    136                    137                    138
                      A                      A                      A
 Frequencies --   3170.5316              3172.3834              3173.4476
 Red. masses --      1.0505                 1.0617                 1.1071
 Frc consts  --      6.2219                 6.2956                 6.5689
 IR Inten    --      3.5982                 1.0064                15.3422

                    139                    140                    141
                      A                      A                      A
 Frequencies --   3173.4926              3276.4885              3284.7188
 Red. masses --      1.1071                 1.1227                 1.1192
 Frc consts  --      6.5692                 7.1013                 7.1145
 IR Inten    --     21.4056                 0.0003                 0.0749

 - Thermochemistry -
 -------------------
 Temperature   298.150 Kelvin.  Pressure   1.00000 Atm.
 Atom     1 has atomic number  6 and mass  12.00000

 Molecular mass:   292.21508 amu.
 Principal axes and moments of inertia in atomic units:
                           1         2         3
     Eigenvalues --  3420.538689891.15237**********
           X            0.99997  -0.00000  -0.00813
           Y            0.00000   1.00000   0.00000
           Z            0.00813  -0.00000   0.99997
 This molecule is an asymmetric top.
 Rotational symmetry number  1.
 Warning -- assumption of classical behavior for rotation
           may cause significant error
 Rotational temperatures (Kelvin)      0.02532     0.00876     0.00755
 Rotational constants (GHZ):           0.52762     0.18246     0.15726
    2 imaginary frequencies ignored.
 Zero-point vibrational energy    1135882.3 (Joules/Mol)
                                  271.48240 (Kcal/Mol)
 Warning -- explicit consideration of  33 degrees of freedom as
           vibrations may cause significant error
 Vibrational temperatures:     71.89    74.50    86.94   103.88   119.91
          (Kelvin)            179.49   221.78   277.84   291.62   304.32
                              338.89   341.24   355.83   359.34   378.92
                              383.72   398.04   404.54   423.98   425.20
                              471.88   493.02   510.95   520.75   539.86
                              569.72   572.31   585.71   647.75   687.28
                              716.21   790.27   809.80  1006.22  1035.75
                             1083.25  1090.57  1112.42  1151.68  1176.73
                             1177.08  1252.23  1252.71  1288.34  1356.60
                             1356.71  1359.06  1362.78  1369.41  1370.82
                             1371.11  1395.08  1406.04  1417.04  1421.23
                             1452.98  1460.02  1465.81  1471.27  1501.02
                             1519.03  1522.59  1528.95  1532.07  1548.31
                             1561.51  1569.02  1601.77  1685.75  1718.11
                             1745.16  1745.72  1771.07  1771.49  1795.09
                             1795.15  1819.49  1836.98  1842.76  1850.48
                             1856.41  1919.39  1925.34  1952.63  1962.23
                             1984.50  1985.35  1993.63  1993.67  2023.04
                             2023.16  2035.28  2057.89  2075.91  2076.78
                             2091.43  2092.08  2097.96  2099.11  2111.95
                             2118.83  2122.42  2124.80  2129.41  2137.01
                             2143.45  2147.69  2153.43  2196.43  2496.37
                             2534.65  4384.19  4384.23  4388.90  4388.98
                             4398.50  4398.62  4443.89  4443.96  4461.30
                             4461.76  4515.76  4515.83  4519.12  4519.22
                             4526.01  4526.10  4529.87  4529.90  4531.78
                             4531.92  4544.30  4544.35  4561.69  4564.35
                             4565.88  4565.95  4714.14  4725.98

 Zero-point correction=                           0.432635 (Hartree/Particle)
 Thermal correction to Energy=                    0.453117
 Thermal correction to Enthalpy=                  0.454061
 Thermal correction to Gibbs Free Energy=         0.385227
 Sum of electronic and zero-point Energies=           -922.466977
 Sum of electronic and thermal Energies=              -922.446495
 Sum of electronic and thermal Enthalpies=            -922.445551
 Sum of electronic and thermal Free Energies=         -922.514386

                     E (Thermal)             CV                S
                      KCal/Mol        Cal/Mol-Kelvin    Cal/Mol-Kelvin
 Total                  284.335             82.125            144.874
 Electronic               0.000              0.000              0.000
 Translational            0.889              2.981             42.914
 Rotational               0.889              2.981             34.317
 Vibrational            282.558             76.163             67.643
 Vibration     1          0.595              1.978              4.819
 Vibration     2          0.596              1.977              4.748
 Vibration     3          0.597              1.973              4.443
 Vibration     4          0.598              1.967              4.092
 Vibration     5          0.600              1.961              3.811
 Vibration     6          0.610              1.928              3.025
 Vibration     7          0.620              1.898              2.620
 Vibration     8          0.635              1.849              2.198
 Vibration     9          0.639              1.836              2.109
 Vibration    10          0.643              1.823              2.031
 Vibration    11          0.655              1.786              1.836
 Vibration    12          0.656              1.784              1.824
 Vibration    13          0.661              1.767              1.750
 Vibration    14          0.663              1.763              1.732
 Vibration    15          0.670              1.740              1.639
 Vibration    16          0.672              1.734              1.618
 Vibration    17          0.678              1.717              1.554
 Vibration    18          0.681              1.708              1.527
 Vibration    19          0.689              1.684              1.447
 Vibration    20          0.690              1.682              1.442
 Vibration    21          0.711              1.620              1.270
 Vibration    22          0.722              1.590              1.200
 Vibration    23          0.731              1.565              1.143
 Vibration    24          0.736              1.551              1.114
 Vibration    25          0.746              1.523              1.058
 Vibration    26          0.763              1.479              0.978
 Vibration    27          0.764              1.475              0.971
 Vibration    28          0.772              1.455              0.937
 Vibration    29          0.809              1.360              0.795
 Vibration    30          0.834              1.300              0.716
 Vibration    31          0.853              1.255              0.664
 Vibration    32          0.905              1.141              0.546
 Vibration    33          0.919              1.112              0.518

 Normal termination of Gaussian 16 at Fri Nov 18 10:17:47 2022.
