 Gaussian 16, Revision A.03,
 Gaussian 16:  ES64L-G16RevA.03 25-Dec-2016

 ----------------------------------------------------------------------
 #p pop=(regular,nbo,savenbos) freq=noraman def2svp empiricaldispersion
 =gd3bj output=wfx pbe1pbe
 ----------------------------------------------------------------------

 ----------
 047_lig_c2
 ----------
 Symbolic Z-matrix:
 Charge =  0 Multiplicity = 1

                         Standard orientation:
 ---------------------------------------------------------------------
 Center     Atomic      Atomic             Coordinates (Angstroms)
 Number     Number       Type             X           Y           Z
 ---------------------------------------------------------------------
      1          6           0        0.509793    2.848474   -0.655190
      2          6           0        0.011946    1.766138    0.317245
      3          6           0        1.135251    0.845344    0.667945
      4          7           0        1.321535   -0.361731    0.298546
      5          6           0        2.664918   -0.770416    0.723897
      6          6           0        3.615809   -0.952344   -0.486602
      7          6           0        4.958187   -1.450634    0.053872
      8          6           0        3.806413    0.363085   -1.243594
      9          6           0        3.043755   -2.003466   -1.440628
     10          6           0        3.044797    0.360102    1.691793
     11          8           0        2.092531    1.404050    1.403194
     12          6           0       -1.211609    1.088814   -0.209234
     13          7           0       -1.414159   -0.155349   -0.402388
     14          6           0       -2.807240   -0.336763   -0.826521
     15          6           0       -3.645730   -1.078456    0.244036
     16          6           0       -3.043605   -2.460821    0.504081
     17          6           0       -3.686070   -0.289828    1.553821
     18          6           0       -5.059882   -1.251877   -0.315459
     19          6           0       -3.240334    1.110129   -1.112953
     20          8           0       -2.213714    1.914128   -0.498877
     21          1           0       -0.291023    3.574047   -0.845159
     22          1           0        1.374338    3.369215   -0.224149
     23          1           0        0.810305    2.394835   -1.610734
     24          1           0       -0.293827    2.268833    1.251600
     25          1           0        2.564084   -1.740380    1.233815
     26          1           0        4.836148   -2.406506    0.586599
     27          1           0        5.428831   -0.731699    0.743896
     28          1           0        5.663434   -1.615882   -0.774626
     29          1           0        4.481639    0.210319   -2.099099
     30          1           0        2.849809    0.728730   -1.647826
     31          1           0        4.246204    1.157273   -0.619318
     32          1           0        3.773025   -2.220740   -2.236457
     33          1           0        2.118778   -1.662590   -1.931750
     34          1           0        2.801595   -2.938696   -0.915694
     35          1           0        2.920396    0.080273    2.748614
     36          1           0        4.051569    0.768983    1.543085
     37          1           0       -2.787405   -0.952271   -1.738803
     38          1           0       -2.890546   -3.019842   -0.430533
     39          1           0       -3.711846   -3.042229    1.158169
     40          1           0       -2.066385   -2.406347    1.008530
     41          1           0       -4.136005    0.709310    1.437687
     42          1           0       -2.674809   -0.169313    1.972694
     43          1           0       -4.284594   -0.831389    2.301951
     44          1           0       -5.043247   -1.828086   -1.253723
     45          1           0       -5.558486   -0.289344   -0.513545
     46          1           0       -5.686803   -1.800772    0.403355
     47          1           0       -3.253412    1.350269   -2.186540
     48          1           0       -4.202339    1.393252   -0.668745
 ---------------------------------------------------------------------

 SCF Done:  E(RPBE1PBE) =  -884.885304334     A.U. after   14 cycles

 The electronic state is 1-A.
 Alpha  occ. eigenvalues --  -19.24300 -19.24274 -14.35211 -14.35171 -10.31192
 Alpha  occ. eigenvalues --  -10.31138 -10.28569 -10.28552 -10.26307 -10.25704
 Alpha  occ. eigenvalues --  -10.25689 -10.24272 -10.24252 -10.23640 -10.22362
 Alpha  occ. eigenvalues --  -10.22361 -10.21908 -10.21829 -10.21137 -10.21129
 Alpha  occ. eigenvalues --   -1.11796  -1.11583  -0.91497  -0.90677  -0.85448
 Alpha  occ. eigenvalues --   -0.83304  -0.81875  -0.76660  -0.74327  -0.69734
 Alpha  occ. eigenvalues --   -0.69670  -0.69084  -0.68987  -0.66696  -0.65189
 Alpha  occ. eigenvalues --   -0.64906  -0.59621  -0.55792  -0.55187  -0.54501
 Alpha  occ. eigenvalues --   -0.51990  -0.51590  -0.51192  -0.49951  -0.47501
 Alpha  occ. eigenvalues --   -0.46802  -0.46345  -0.45089  -0.44907  -0.44482
 Alpha  occ. eigenvalues --   -0.44135  -0.43418  -0.42712  -0.41553  -0.40955
 Alpha  occ. eigenvalues --   -0.39440  -0.39345  -0.39178  -0.38896  -0.37923
 Alpha  occ. eigenvalues --   -0.37308  -0.36947  -0.36755  -0.36555  -0.36525
 Alpha  occ. eigenvalues --   -0.36054  -0.34787  -0.34276  -0.34219  -0.33439
 Alpha  occ. eigenvalues --   -0.33373  -0.32867  -0.32831  -0.27939  -0.25161
 Alpha  occ. eigenvalues --   -0.24474  -0.24300
 Alpha virt. eigenvalues --    0.02863   0.03195   0.05987   0.06467   0.08498
 Alpha virt. eigenvalues --    0.09066   0.09507   0.09778   0.10107   0.10463
 Alpha virt. eigenvalues --    0.11311   0.11518   0.12200   0.12474   0.13564

 Mulliken charges:
               1
     1  C   -0.053599
     2  C   -0.018868
     3  C    0.096857
     4  N   -0.200105
     5  C   -0.018510
     6  C   -0.383456
     7  C    0.024453
     8  C    0.006082
     9  C    0.035694
    10  C    0.241742
    11  O   -0.349016
    12  C    0.114447
    13  N   -0.197523
    14  C   -0.017655
    15  C   -0.380411
    16  C    0.035367
    17  C    0.006530
    18  C    0.022580
    19  C    0.241597
    20  O   -0.349433
    21  H    0.066086
    22  H    0.061562
    23  H    0.057651
    24  H    0.070384
    25  H    0.031969
    26  H    0.034367
    27  H    0.024943
    28  H    0.036925
    29  H    0.034363
    30  H    0.050198
    31  H    0.029575
    32  H    0.025841
    33  H    0.055523
    34  H    0.029348
    35  H    0.046375
    36  H    0.043675
    37  H    0.031685
    38  H    0.028865
    39  H    0.025686
    40  H    0.056400
    41  H    0.029079
    42  H    0.052276
    43  H    0.034535
    44  H    0.034208
    45  H    0.025319
    46  H    0.037244
    47  H    0.045020
    48  H    0.044127
 Sum of Mulliken charges =  -0.00000

 Dipole moment (field-independent basis, Debye):
    X=              0.0057    Y=              0.7286    Z=              0.1146  Tot=              0.7376
 Quadrupole moment (field-independent basis, Debye-Ang):
   XX=           -111.4447   YY=           -125.3160   ZZ=           -120.1453
   XY=             -0.8892   XZ=              3.9359   YZ=             -2.1117

  Exact polarizability: 209.426  -0.692 184.894   4.463   0.412 160.502
 Approx polarizability: 249.647  -1.582 276.430   6.902   9.364 232.407

 Summary of Natural Population Analysis:

                                       Natural Population
                Natural  -----------------------------------------------
    Atom  No    Charge         Core      Valence    Rydberg      Total
 -----------------------------------------------------------------------
      C    1   -0.63328      1.99926     4.62390    0.01013     6.63328
      C    2   -0.35968      1.99891     4.34292    0.01785     6.35968
      C    3    0.62072      1.99904     3.33362    0.04661     5.37928
      N    4   -0.54022      1.99928     5.52403    0.01691     7.54022
      C    5   -0.08811      1.99894     4.06162    0.02756     6.08811
      C    6   -0.08275      1.99886     4.06730    0.01658     6.08275
      C    7   -0.64994      1.99918     4.63724    0.01353     6.64994
      C    8   -0.65958      1.99917     4.64655    0.01385     6.65958
      C    9   -0.64891      1.99918     4.63518    0.01454     6.64891
      C   10   -0.08501      1.99903     4.06621    0.01978     6.08501
      O   11   -0.57347      1.99965     6.56299    0.01083     8.57347
      C   12    0.61986      1.99904     3.33483    0.04626     5.38014
      N   13   -0.53902      1.99928     5.52293    0.01680     7.53902
      C   14   -0.08822      1.99894     4.06164    0.02765     6.08822
      C   15   -0.08299      1.99886     4.06763    0.01650     6.08299
      C   16   -0.64880      1.99919     4.63507    0.01455     6.64880
      C   17   -0.66046      1.99918     4.64742    0.01387     6.66046
      C   18   -0.65011      1.99918     4.63745    0.01348     6.65011
      C   19   -0.08420      1.99903     4.06555    0.01961     6.08420
      O   20   -0.57444      1.99965     6.56395    0.01085     8.57444
      H   21    0.23986      0.00000     0.75732    0.00282     0.76014
      H   22    0.23715      0.00000     0.75998    0.00287     0.76285
      H   23    0.22625      0.00000     0.77086    0.00289     0.77375
      H   24    0.27533      0.00000     0.71942    0.00525     0.72467
      H   25    0.24402      0.00000     0.75264    0.00334     0.75598
      H   26    0.22521      0.00000     0.77217    0.00262     0.77479
      H   27    0.21842      0.00000     0.77908    0.00250     0.78158
      H   28    0.22984      0.00000     0.76761    0.00255     0.77016
      H   29    0.22978      0.00000     0.76770    0.00253     0.77022
      H   30    0.23213      0.00000     0.76472    0.00316     0.76787
      H   31    0.22129      0.00000     0.77623    0.00249     0.77871
      H   32    0.21921      0.00000     0.77823    0.00256     0.78079
      H   33    0.24536      0.00000     0.75175    0.00289     0.75464
      H   34    0.22464      0.00000     0.77289    0.00247     0.77536
      H   35    0.21262      0.00000     0.78425    0.00312     0.78738
      H   36    0.21162      0.00000     0.78545    0.00294     0.78838
      H   37    0.24391      0.00000     0.75274    0.00335     0.75609
      H   38    0.22435      0.00000     0.77319    0.00247     0.77565
      H   39    0.21927      0.00000     0.77818    0.00255     0.78073
      H   40    0.24533      0.00000     0.75178    0.00289     0.75467
      H   41    0.22094      0.00000     0.77657    0.00249     0.77906
      H   42    0.23559      0.00000     0.76146    0.00295     0.76441
      H   43    0.22933      0.00000     0.76816    0.00251     0.77067
      H   44    0.22509      0.00000     0.77229    0.00263     0.77491
      H   45    0.21839      0.00000     0.77912    0.00249     0.78161
      H   46    0.23001      0.00000     0.76744    0.00255     0.76999
      H   47    0.21224      0.00000     0.78465    0.00311     0.78776
      H   48    0.21146      0.00000     0.78560    0.00294     0.78854
 =======================================================================
   * Total *   -0.00000     39.98285   113.54950    0.46765   154.00000

 ******    2 imaginary frequencies (negative Signs) ******

                      1                      2                      3
                      A                      A                      A
 Frequencies --    -72.8141               -53.7258                50.8147
 Red. masses --      5.5921                 4.5066                 3.4328
 Frc consts  --      0.0175                 0.0077                 0.0052
 IR Inten    --      0.2515                 0.2234                 0.1588

                      4                      5                      6
                      A                      A                      A
 Frequencies --     54.2754                64.9335                71.1815
 Red. masses --      3.4383                 2.9518                 2.7579
 Frc consts  --      0.0060                 0.0073                 0.0082
 IR Inten    --      0.3311                 0.1755                 0.0921

                      7                      8                      9
                      A                      A                      A
 Frequencies --     81.8948               120.4979               152.8270
 Red. masses --      3.6979                 3.8772                 3.0301
 Frc consts  --      0.0146                 0.0332                 0.0417
 IR Inten    --      0.2049                 1.1302                 0.3367

                     10                     11                     12
                      A                      A                      A
 Frequencies --    191.3403               202.5378               207.3501
 Red. masses --      1.5367                 1.1445                 1.5542
 Frc consts  --      0.0331                 0.0277                 0.0394
 IR Inten    --      2.4950                 0.5724                 1.0803

                     13                     14                     15
                      A                      A                      A
 Frequencies --    219.1413               237.2930               245.9614
 Red. masses --      1.8407                 1.4224                 1.2682
 Frc consts  --      0.0521                 0.0472                 0.0452
 IR Inten    --      0.6418                 0.0877                 0.1497

                     16                     17                     18
                      A                      A                      A
 Frequencies --    249.1116               258.1285               260.4212
 Red. masses --      1.3041                 1.5169                 1.4285
 Frc consts  --      0.0477                 0.0596                 0.0571
 IR Inten    --      0.0838                 0.1231                 0.4216

                     19                     20                     21
                      A                      A                      A
 Frequencies --    269.4577               276.9775               289.9188
 Red. masses --      1.2568                 1.6955                 1.8290
 Frc consts  --      0.0538                 0.0766                 0.0906
 IR Inten    --      0.1511                 0.0561                 0.6724

                     22                     23                     24
                      A                      A                      A
 Frequencies --    295.9827               314.9291               335.9637
 Red. masses --      2.0862                 3.4488                 2.7652
 Frc consts  --      0.1077                 0.2015                 0.1839
 IR Inten    --      1.2874                 1.1816                 1.2615

                     25                     26                     27
                      A                      A                      A
 Frequencies --    353.7202               357.0968               370.1782
 Red. masses --      3.0291                 2.5255                 3.2008
 Frc consts  --      0.2233                 0.1897                 0.2584
 IR Inten    --      1.5650                 0.4254                 1.0433

                     28                     29                     30
                      A                      A                      A
 Frequencies --    389.3554               396.7155               404.5674
 Red. masses --      2.5324                 2.3267                 2.5282
 Frc consts  --      0.2262                 0.2157                 0.2438
 IR Inten    --      2.9246                 0.9297                 5.6475

                     31                     32                     33
                      A                      A                      A
 Frequencies --    467.0641               475.1680               512.8421
 Red. masses --      2.7228                 2.5219                 2.8370
 Frc consts  --      0.3500                 0.3355                 0.4396
 IR Inten    --      0.4810                 0.6578                 1.3545

                     34                     35                     36
                      A                      A                      A
 Frequencies --    544.5267               649.3331               699.2391
 Red. masses --      3.3963                 4.7755                 4.6334
 Frc consts  --      0.5933                 1.1863                 1.3348
 IR Inten    --      6.1180                 5.3380                 7.2915

                     37                     38                     39
                      A                      A                      A
 Frequencies --    734.6121               748.8515               763.4071
 Red. masses --      2.9278                 3.1338                 3.4644
 Frc consts  --      0.9309                 1.0354                 1.1896
 IR Inten    --      4.5910                 0.5388                 6.3064

                     40                     41                     42
                      A                      A                      A
 Frequencies --    779.2940               814.0410               825.3333
 Red. masses --      3.2390                 5.6519                 4.7701
 Frc consts  --      1.1590                 2.2067                 1.9144
 IR Inten    --      1.0968                 0.0637                 5.7610

                     43                     44                     45
                      A                      A                      A
 Frequencies --    871.1487               871.7938               942.4995
 Red. masses --      2.0383                 2.0466                 1.3699
 Frc consts  --      0.9114                 0.9164                 0.7170
 IR Inten    --      3.5538                 2.5253                 2.1930

                     46                     47                     48
                      A                      A                      A
 Frequencies --    942.9340               946.5764               947.3602
 Red. masses --      1.3736                 1.4090                 1.3941
 Frc consts  --      0.7196                 0.7438                 0.7372
 IR Inten    --      1.8597                 1.0548                 2.3992

                     49                     50                     51
                      A                      A                      A
 Frequencies --    952.2810               952.8497               962.1119
 Red. masses --      1.4578                 1.4556                 3.3574
 Frc consts  --      0.7789                 0.7787                 1.8311
 IR Inten    --      1.3273                 1.3291                11.7907

                     52                     53                     54
                      A                      A                      A
 Frequencies --    979.8625               985.2441               986.9038
 Red. masses --      3.3717                 1.6902                 1.9114
 Frc consts  --      1.9074                 0.9667                 1.0969
 IR Inten    --     50.6119                 1.2226                14.7179

                     55                     56                     57
                      A                      A                      A
 Frequencies --   1010.5102              1015.6735              1017.8109
 Red. masses --      3.1296                 1.8779                 2.0709
 Frc consts  --      1.8829                 1.1414                 1.2640
 IR Inten    --      3.7794                 8.2947                 6.5761

                     58                     59                     60
                      A                      A                      A
 Frequencies --   1024.6596              1043.4675              1054.9909
 Red. masses --      2.5053                 2.2530                 1.7447
 Frc consts  --      1.5498                 1.4453                 1.1441
 IR Inten    --     14.4201                 1.1104                 6.9307

                     61                     62                     63
                      A                      A                      A
 Frequencies --   1057.1796              1063.5247              1073.5385
 Red. masses --      1.8401                 2.1398                 1.8576
 Frc consts  --      1.2117                 1.4260                 1.2614
 IR Inten    --      0.6726                 3.4793                 3.3020

                     64                     65                     66
                      A                      A                      A
 Frequencies --   1080.4791              1087.0459              1126.5724
 Red. masses --      2.0851                 2.5026                 3.2007
 Frc consts  --      1.4342                 1.7423                 2.3934
 IR Inten    --      6.6754                 3.7183                28.6929

                     67                     68                     69
                      A                      A                      A
 Frequencies --   1128.4464              1212.9301              1213.6613
 Red. masses --      2.2802                 1.3701                 1.4251
 Frc consts  --      1.7107                 1.1876                 1.2368
 IR Inten    --    115.3797                 0.4573                14.3203

                     70                     71                     72
                      A                      A                      A
 Frequencies --   1217.6532              1230.9189              1231.6092
 Red. masses --      1.7247                 1.5512                 1.5559
 Frc consts  --      1.5067                 1.3847                 1.3905
 IR Inten    --    125.6142                21.2042                29.4177

                     73                     74                     75
                      A                      A                      A
 Frequencies --   1248.5201              1249.3861              1264.5050
 Red. masses --      1.9633                 1.9791                 1.8279
 Frc consts  --      1.8032                 1.8202                 1.7220
 IR Inten    --      0.0239                 0.3660                37.2512

                     76                     77                     78
                      A                      A                      A
 Frequencies --   1277.8241              1282.2408              1288.1415
 Red. masses --      2.0092                 2.2553                 2.0598
 Frc consts  --      1.9329                 2.1847                 2.0138
 IR Inten    --      0.0906                 3.6328                 5.2889

                     79                     80                     81
                      A                      A                      A
 Frequencies --   1289.5614              1319.9691              1338.0554
 Red. masses --      1.6194                 1.5641                 1.4360
 Frc consts  --      1.5866                 1.6056                 1.5148
 IR Inten    --      2.6355                 6.4378                 4.9913

                     82                     83                     84
                      A                      A                      A
 Frequencies --   1353.2435              1363.7238              1370.8437
 Red. masses --      1.6632                 1.6168                 1.2758
 Frc consts  --      1.7945                 1.7715                 1.4126
 IR Inten    --      7.5264                 7.4458                 2.2648

                     85                     86                     87
                      A                      A                      A
 Frequencies --   1379.3273              1379.9186              1385.1109
 Red. masses --      1.3277                 1.3372                 1.4503
 Frc consts  --      1.4883                 1.5002                 1.6394
 IR Inten    --      4.6193                14.4999                10.6871

                     88                     89                     90
                      A                      A                      A
 Frequencies --   1385.9906              1405.6859              1406.4564
 Red. masses --      1.4511                 1.2626                 1.2633
 Frc consts  --      1.6424                 1.4699                 1.4723
 IR Inten    --     10.0896                13.3298                11.7563

                     91                     92                     93
                      A                      A                      A
 Frequencies --   1428.9899              1442.6268              1443.2830
 Red. masses --      2.1666                 1.0493                 1.0524
 Frc consts  --      2.6067                 1.2866                 1.2916
 IR Inten    --     17.0658                 0.7123                 0.4189

                     94                     95                     96
                      A                      A                      A
 Frequencies --   1453.0938              1453.4682              1454.8865
 Red. masses --      1.1553                 1.0448                 1.1230
 Frc consts  --      1.4372                 1.3005                 1.4005
 IR Inten    --     10.4331                 1.5292                 3.8093

                     97                     98                     99
                      A                      A                      A
 Frequencies --   1457.7836              1458.9026              1465.0183
 Red. masses --      1.0515                 1.0534                 1.0558
 Frc consts  --      1.3166                 1.3210                 1.3351
 IR Inten    --      0.9248                 1.0264                 9.3205

                    100                    101                    102
                      A                      A                      A
 Frequencies --   1471.6701              1473.8451              1476.2468
 Red. masses --      1.0761                 1.1042                 1.0780
 Frc consts  --      1.3732                 1.4132                 1.3842
 IR Inten    --      3.7794                 0.2628                 1.5168

                    103                    104                    105
                      A                      A                      A
 Frequencies --   1478.0709              1486.2568              1489.8285
 Red. masses --      1.1176                 1.1008                 1.1203
 Frc consts  --      1.4385                 1.4327                 1.4650
 IR Inten    --      5.3394                 2.8884                 2.4676

                    106                    107                    108
                      A                      A                      A
 Frequencies --   1492.3379              1496.8252              1517.3759
 Red. masses --      1.1079                 1.1394                 2.3089
 Frc consts  --      1.4537                 1.5041                 3.1321
 IR Inten    --     33.2682                11.6409               116.9848

                    109                    110                    111
                      A                      A                      A
 Frequencies --   1741.4695              1767.1594              3047.4956
 Red. masses --     10.8908                11.0679                 1.0367
 Frc consts  --     19.4599                20.3641                 5.6724
 IR Inten    --     65.0596               239.5374                24.0853

                    112                    113                    114
                      A                      A                      A
 Frequencies --   3047.6000              3050.9250              3052.1815
 Red. masses --      1.0366                 1.0372                 1.0371
 Frc consts  --      5.6727                 5.6884                 5.6923
 IR Inten    --     20.6750                19.9425                20.8071

                    115                    116                    117
                      A                      A                      A
 Frequencies --   3057.4860              3057.5702              3069.2628
 Red. masses --      1.0382                 1.0383                 1.0808
 Frc consts  --      5.7183                 5.7189                 5.9989
 IR Inten    --     16.6001                17.5770                 2.5673

                    118                    119                    120
                      A                      A                      A
 Frequencies --   3077.7692              3088.6624              3089.6664
 Red. masses --      1.0376                 1.0752                 1.0722
 Frc consts  --      5.7908                 6.0433                 6.0302
 IR Inten    --     13.3464                16.4094                19.2766

                    121                    122                    123
                      A                      A                      A
 Frequencies --   3100.2773              3102.0217              3139.2468
 Red. masses --      1.0764                 1.0796                 1.1031
 Frc consts  --      6.0956                 6.1207                 6.4047
 IR Inten    --     43.9975                32.3444                11.1129

                    124                    125                    126
                      A                      A                      A
 Frequencies --   3139.4062              3141.6818              3142.5293
 Red. masses --      1.1032                 1.1027                 1.1027
 Frc consts  --      6.4060                 6.4126                 6.4161
 IR Inten    --      9.1677                30.8769                27.3141

                    127                    128                    129
                      A                      A                      A
 Frequencies --   3145.8692              3146.1830              3148.3869
 Red. masses --      1.1031                 1.1033                 1.1037
 Frc consts  --      6.4321                 6.4342                 6.4461
 IR Inten    --      8.5752                 3.1083                10.5613

                    130                    131                    132
                      A                      A                      A
 Frequencies --   3148.9628              3150.1398              3151.4308
 Red. masses --      1.1036                 1.1024                 1.1027
 Frc consts  --      6.4473                 6.4454                 6.4527
 IR Inten    --     17.9595                36.6195                22.5207

                    133                    134                    135
                      A                      A                      A
 Frequencies --   3158.0066              3159.6468              3172.1945
 Red. masses --      1.1036                 1.1037                 1.1075
 Frc consts  --      6.4849                 6.4922                 6.5663
 IR Inten    --     20.7233                20.6536                18.5051

                    136                    137                    138
                      A                      A                      A
 Frequencies --   3172.4269              3180.3441              3196.4788
 Red. masses --      1.1074                 1.1045                 1.1059
 Frc consts  --      6.5663                 6.5823                 6.6573
 IR Inten    --     19.6229                 8.2194                 5.8983

 - Thermochemistry -
 -------------------
 Temperature   298.150 Kelvin.  Pressure   1.00000 Atm.
 Atom     1 has atomic number  6 and mass  12.00000

 Molecular mass:   280.21508 amu.
 Principal axes and moments of inertia in atomic units:
                           1         2         3
     Eigenvalues --  2944.487009910.69422**********
           X            0.99996   0.00308  -0.00800
           Y           -0.00319   0.99991  -0.01274
           Z            0.00796   0.01276   0.99989
 This molecule is an asymmetric top.
 Rotational symmetry number  1.
 Warning -- assumption of classical behavior for rotation
           may cause significant error
 Rotational temperatures (Kelvin)      0.02942     0.00874     0.00785
 Rotational constants (GHZ):           0.61292     0.18210     0.16350
    2 imaginary frequencies ignored.
 Zero-point vibrational energy    1119944.0 (Joules/Mol)
                                  267.67304 (Kcal/Mol)
 Warning -- explicit consideration of  32 degrees of freedom as
           vibrations may cause significant error
 Vibrational temperatures:     73.11    78.09    93.42   102.41   117.83
          (Kelvin)            173.37   219.88   275.30   291.41   298.33
                              315.30   341.41   353.88   358.42   371.39
                              374.69   387.69   398.51   417.13   425.85
                              453.11   483.38   508.92   513.78   532.60
                              560.20   570.79   582.08   672.00   683.66
                              737.87   783.45   934.25  1006.05  1056.94
                             1077.43  1098.37  1121.23  1171.22  1187.47
                             1253.39  1254.32  1356.05  1356.67  1361.91
                             1363.04  1370.12  1370.94  1384.26  1409.80
                             1417.55  1419.93  1453.90  1461.33  1464.40
                             1474.26  1501.32  1517.90  1521.05  1530.17
                             1544.58  1554.57  1564.02  1620.89  1623.58
                             1745.14  1746.19  1751.93  1771.02  1772.01
                             1796.34  1797.59  1819.34  1838.50  1844.86
                             1853.35  1855.39  1899.14  1925.16  1947.02
                             1962.09  1972.34  1984.54  1985.40  1992.87
                             1994.13  2022.47  2023.58  2056.00  2075.62
                             2076.56  2090.68  2091.22  2093.26  2097.43
                             2099.04  2107.83  2117.40  2120.53  2123.99
                             2126.61  2138.39  2143.53  2147.14  2153.60
                             2183.17  2505.59  2542.55  4384.67  4384.82
                             4389.60  4391.41  4399.04  4399.16  4415.98
                             4428.22  4443.90  4445.34  4460.61  4463.12
                             4516.68  4516.91  4520.18  4521.40  4526.20
                             4526.66  4529.83  4530.66  4532.35  4534.21
                             4543.67  4546.03  4564.08  4564.41  4575.81
                             4599.02

 Zero-point correction=                           0.426564 (Hartree/Particle)
 Thermal correction to Energy=                    0.446891
 Thermal correction to Enthalpy=                  0.447835
 Thermal correction to Gibbs Free Energy=         0.379300
 Sum of electronic and zero-point Energies=           -884.458740
 Sum of electronic and thermal Energies=              -884.438413
 Sum of electronic and thermal Enthalpies=            -884.437469
 Sum of electronic and thermal Free Energies=         -884.506004

                     E (Thermal)             CV                S
                      KCal/Mol        Cal/Mol-Kelvin    Cal/Mol-Kelvin
 Total                  280.428             80.244            144.245
 Electronic               0.000              0.000              0.000
 Translational            0.889              2.981             42.789
 Rotational               0.889              2.981             34.132
 Vibrational            278.651             74.282             67.324
 Vibration     1          0.595              1.977              4.785
 Vibration     2          0.596              1.976              4.655
 Vibration     3          0.597              1.971              4.301
 Vibration     4          0.598              1.968              4.120
 Vibration     5          0.600              1.962              3.845
 Vibration     6          0.609              1.932              3.092
 Vibration     7          0.619              1.900              2.637
 Vibration     8          0.634              1.852              2.215
 Vibration     9          0.639              1.836              2.110
 Vibration    10          0.641              1.829              2.067
 Vibration    11          0.647              1.812              1.966
 Vibration    12          0.656              1.784              1.823
 Vibration    13          0.660              1.769              1.759
 Vibration    14          0.662              1.764              1.737
 Vibration    15          0.667              1.749              1.674
 Vibration    16          0.668              1.745              1.659
 Vibration    17          0.674              1.729              1.600
 Vibration    18          0.678              1.716              1.552
 Vibration    19          0.686              1.692              1.474
 Vibration    20          0.690              1.681              1.440
 Vibration    21          0.702              1.645              1.336
 Vibration    22          0.717              1.604              1.231
 Vibration    23          0.730              1.568              1.150
 Vibration    24          0.732              1.561              1.135
 Vibration    25          0.742              1.533              1.079
 Vibration    26          0.757              1.493              1.003
 Vibration    27          0.763              1.477              0.975
 Vibration    28          0.770              1.460              0.946
 Vibration    29          0.824              1.323              0.746
 Vibration    30          0.832              1.305              0.723
 Vibration    31          0.868              1.222              0.627
 Vibration    32          0.900              1.152              0.556

 Normal termination of Gaussian 16 at Fri Nov 18 10:11:17 2022.
