 Gaussian 16, Revision A.03,
 Gaussian 16:  ES64L-G16RevA.03 25-Dec-2016

 ----------------------------------------------------------------------
 #p pop=(regular,nbo,savenbos) freq=noraman def2svp empiricaldispersion
 =gd3bj output=wfx pbe1pbe
 ----------------------------------------------------------------------

 ------
 box_17
 ------
 Symbolic Z-matrix:
 Charge =  0 Multiplicity = 1

                         Standard orientation:
 ---------------------------------------------------------------------
 Center     Atomic      Atomic             Coordinates (Angstroms)
 Number     Number       Type             X           Y           Z
 ---------------------------------------------------------------------
      1          7           0        1.130017   -0.135345   -0.797299
      2          6           0        0.984901    1.131384   -0.774651
      3          8           0        1.851707    1.841337   -1.500805
      4          6           0        2.625549    0.889761   -2.257971
      5          6           0        2.361324   -0.441672   -1.551696
      6          6           0        0.000011    1.963431    0.000034
      7          6           0       -0.984869    1.131347    0.774679
      8          7           0       -1.130005   -0.135384    0.797263
      9          6           0       -2.361302   -0.441747    1.551669
     10          6           0       -2.625517    0.889650    2.258010
     11          8           0       -1.851665    1.841264    1.500888
     12          6           0       -3.413979   -0.904450    0.567288
     13          6           0        3.413981   -0.904439   -0.567322
     14          6           0        0.799663    2.840223    0.983421
     15          6           0       -0.799671    2.840238   -0.983342
     16          6           0        3.491740   -2.264185   -0.247119
     17          6           0        4.398892   -2.706162    0.713412
     18          6           0        5.234948   -1.799263    1.362324
     19          6           0        5.155468   -0.441928    1.054255
     20          6           0        4.245501    0.003529    0.097870
     21          6           0       -3.491817   -2.264194    0.247078
     22          6           0       -4.398989   -2.706107   -0.713469
     23          6           0       -5.234995   -1.799156   -1.362359
     24          6           0       -5.155447   -0.441831   -1.054293
     25          6           0       -4.245449    0.003572   -0.097903
     26          1           0        3.674353    1.208651   -2.251566
     27          1           0        2.245665    0.897749   -3.290735
     28          1           0        2.121347   -1.255309   -2.250262
     29          1           0       -2.121315   -1.255430    2.250185
     30          1           0       -2.245623    0.897582    3.290774
     31          1           0       -3.674311    1.208550    2.251637
     32          1           0        1.386467    2.215951    1.673350
     33          1           0        1.487042    3.490023    0.426326
     34          1           0        0.109048    3.461523    1.568305
     35          1           0       -1.386465    2.215970   -1.673273
     36          1           0       -1.487051    3.490018   -0.426223
     37          1           0       -0.109067    3.461558   -1.568213
     38          1           0        2.810196   -2.966266   -0.736771
     39          1           0        4.445554   -3.769356    0.959402
     40          1           0        5.946296   -2.148987    2.114299
     41          1           0        5.803555    0.275533    1.563417
     42          1           0        4.185469    1.073633   -0.120542
     43          1           0       -2.810313   -2.966313    0.736715
     44          1           0       -4.445720   -3.769303   -0.959456
     45          1           0       -5.946364   -2.148832   -2.114346
     46          1           0       -5.803483    0.275678   -1.563440
     47          1           0       -4.185358    1.073668    0.120527
 ---------------------------------------------------------------------

 SCF Done:  E(RPBE1PBE) =  -1071.44843592     A.U. after   15 cycles

 The electronic state is 1-A.
 Alpha  occ. eigenvalues --  -19.24518 -19.24512 -14.35426 -14.35422 -10.31114
 Alpha  occ. eigenvalues --  -10.31113 -10.29004 -10.29004 -10.27145 -10.26550
 Alpha  occ. eigenvalues --  -10.26549 -10.24201 -10.24201 -10.23717 -10.23717
 Alpha  occ. eigenvalues --  -10.23661 -10.23661 -10.23594 -10.23594 -10.23538
 Alpha  occ. eigenvalues --  -10.23537 -10.23419 -10.23419 -10.23264 -10.23263
 Alpha  occ. eigenvalues --   -1.11925  -1.11707  -0.91741  -0.90950  -0.87594
 Alpha  occ. eigenvalues --   -0.87041  -0.85593  -0.79731  -0.78442  -0.75985
 Alpha  occ. eigenvalues --   -0.75972  -0.74959  -0.73894  -0.70720  -0.66488
 Alpha  occ. eigenvalues --   -0.65958  -0.64415  -0.62025  -0.61842  -0.60244
 Alpha  occ. eigenvalues --   -0.59542  -0.59002  -0.54940  -0.53938  -0.53380
 Alpha  occ. eigenvalues --   -0.52146  -0.50666  -0.50273  -0.48699  -0.47470
 Alpha  occ. eigenvalues --   -0.46686  -0.46484  -0.46372  -0.45762  -0.44944
 Alpha  occ. eigenvalues --   -0.44128  -0.44100  -0.43873  -0.43054  -0.42939
 Alpha  occ. eigenvalues --   -0.42280  -0.41858  -0.40795  -0.38375  -0.38356
 Alpha  occ. eigenvalues --   -0.37980  -0.37504  -0.37304  -0.37014  -0.36560
 Alpha  occ. eigenvalues --   -0.35937  -0.35738  -0.35333  -0.34936  -0.34675
 Alpha  occ. eigenvalues --   -0.34428  -0.28488  -0.26514  -0.26426  -0.26333
 Alpha  occ. eigenvalues --   -0.26009  -0.25225  -0.24739  -0.24044
 Alpha virt. eigenvalues --   -0.00756  -0.00715  -0.00234  -0.00211   0.03912
 Alpha virt. eigenvalues --    0.03986   0.06502   0.07450   0.08387   0.08859
 Alpha virt. eigenvalues --    0.09230   0.09724   0.10670   0.12293   0.12395

 Mulliken charges:
               1
     1  N   -0.190533
     2  C    0.182768
     3  O   -0.354861
     4  C    0.249678
     5  C   -0.049310
     6  C   -0.324234
     7  C    0.182773
     8  N   -0.190534
     9  C   -0.049308
    10  C    0.249679
    11  O   -0.354869
    12  C    0.017648
    13  C    0.017649
    14  C    0.010039
    15  C    0.010040
    16  C   -0.003325
    17  C   -0.021157
    18  C   -0.012108
    19  C   -0.019309
    20  C   -0.042654
    21  C   -0.003327
    22  C   -0.021157
    23  C   -0.012107
    24  C   -0.019304
    25  C   -0.042656
    26  H    0.046772
    27  H    0.048666
    28  H    0.033850
    29  H    0.033851
    30  H    0.048667
    31  H    0.046772
    32  H    0.055198
    33  H    0.056463
    34  H    0.058562
    35  H    0.055198
    36  H    0.056463
    37  H    0.058561
    38  H    0.016472
    39  H    0.020082
    40  H    0.020237
    41  H    0.017766
    42  H    0.021171
    43  H    0.016468
    44  H    0.020084
    45  H    0.020240
    46  H    0.017764
    47  H    0.021172
 Sum of Mulliken charges =  -0.00000

 Dipole moment (field-independent basis, Debye):
    X=              0.0000    Y=              0.8181    Z=              0.0000  Tot=              0.8181
 Quadrupole moment (field-independent basis, Debye-Ang):
   XX=           -137.0499   YY=           -138.3385   ZZ=           -136.7420
   XY=              0.0002   XZ=              0.8557   YZ=             -0.0006

  Exact polarizability: 240.598   0.001 246.259  40.048  -0.001 193.122
 Approx polarizability: 308.629   0.002 403.828  66.335  -0.001 291.310

 Summary of Natural Population Analysis:

                                       Natural Population
                Natural  -----------------------------------------------
    Atom  No    Charge         Core      Valence    Rydberg      Total
 -----------------------------------------------------------------------
      N    1   -0.51565      1.99927     5.49973    0.01665     7.51565
      C    2    0.61951      1.99901     3.33105    0.05043     5.38049
      O    3   -0.58199      1.99965     6.57164    0.01069     8.58199
      C    4   -0.08229      1.99905     4.06317    0.02007     6.08229
      C    5   -0.09859      1.99894     4.07446    0.02519     6.09859
      C    6   -0.17045      1.99879     4.15447    0.01719     6.17045
      C    7    0.61951      1.99901     3.33105    0.05043     5.38049
      N    8   -0.51565      1.99927     5.49973    0.01665     7.51565
      C    9   -0.09859      1.99894     4.07446    0.02519     6.09859
      C   10   -0.08229      1.99905     4.06317    0.02007     6.08229
      O   11   -0.58199      1.99965     6.57165    0.01069     8.58199
      C   12   -0.04823      1.99886     4.02942    0.01994     6.04823
      C   13   -0.04823      1.99886     4.02942    0.01994     6.04823
      C   14   -0.63779      1.99924     4.62541    0.01315     6.63779
      C   15   -0.63778      1.99924     4.62540    0.01314     6.63778
      C   16   -0.20904      1.99888     4.19398    0.01618     6.20904
      C   17   -0.22024      1.99895     4.20615    0.01514     6.22024
      C   18   -0.23262      1.99895     4.21860    0.01507     6.23262
      C   19   -0.22008      1.99895     4.20567    0.01546     6.22008
      C   20   -0.23395      1.99889     4.22016    0.01490     6.23395
      C   21   -0.20904      1.99888     4.19398    0.01618     6.20904
      C   22   -0.22024      1.99895     4.20615    0.01514     6.22024
      C   23   -0.23262      1.99895     4.21860    0.01507     6.23262
      C   24   -0.22008      1.99895     4.20567    0.01546     6.22008
      C   25   -0.23394      1.99889     4.22016    0.01490     6.23394
      H   26    0.21800      0.00000     0.77891    0.00309     0.78200
      H   27    0.21344      0.00000     0.78341    0.00315     0.78656
      H   28    0.24814      0.00000     0.74867    0.00319     0.75186
      H   29    0.24814      0.00000     0.74867    0.00319     0.75186
      H   30    0.21344      0.00000     0.78341    0.00315     0.78656
      H   31    0.21799      0.00000     0.77892    0.00309     0.78201
      H   32    0.23627      0.00000     0.76127    0.00246     0.76373
      H   33    0.23764      0.00000     0.75969    0.00266     0.76236
      H   34    0.23902      0.00000     0.75824    0.00273     0.76098
      H   35    0.23627      0.00000     0.76127    0.00246     0.76373
      H   36    0.23764      0.00000     0.75970    0.00266     0.76236
      H   37    0.23902      0.00000     0.75825    0.00273     0.76098
      H   38    0.23385      0.00000     0.76327    0.00288     0.76615
      H   39    0.23028      0.00000     0.76697    0.00275     0.76972
      H   40    0.22994      0.00000     0.76735    0.00271     0.77006
      H   41    0.22986      0.00000     0.76739    0.00275     0.77014
      H   42    0.22974      0.00000     0.76654    0.00372     0.77026
      H   43    0.23385      0.00000     0.76328    0.00288     0.76615
      H   44    0.23028      0.00000     0.76697    0.00275     0.76972
      H   45    0.22994      0.00000     0.76735    0.00271     0.77006
      H   46    0.22986      0.00000     0.76739    0.00275     0.77014
      H   47    0.22974      0.00000     0.76654    0.00372     0.77026
 =======================================================================
   * Total *   -0.00000     49.97606   127.47680    0.54714   178.00000

 ******    2 imaginary frequencies (negative Signs) ******

                      1                      2                      3
                      A                      A                      A
 Frequencies --    -56.0331               -45.5816                28.1571
 Red. masses --      7.1943                 5.8718                 4.3265
 Frc consts  --      0.0133                 0.0072                 0.0020
 IR Inten    --      0.1614                 0.1229                 0.0015

                      4                      5                      6
                      A                      A                      A
 Frequencies --     32.1258                41.0516                42.2412
 Red. masses --      3.5529                 3.6798                 4.4631
 Frc consts  --      0.0022                 0.0037                 0.0047
 IR Inten    --      0.0865                 0.3219                 0.0048

                      7                      8                      9
                      A                      A                      A
 Frequencies --     56.8260                94.3540               123.4975
 Red. masses --      6.2787                 6.4589                 4.7926
 Frc consts  --      0.0119                 0.0339                 0.0431
 IR Inten    --      0.2576                 0.2144                 0.4371

                     10                     11                     12
                      A                      A                      A
 Frequencies --    134.0537               159.8187               226.7618
 Red. masses --      4.2830                 2.8782                 1.5290
 Frc consts  --      0.0453                 0.0433                 0.0463
 IR Inten    --      3.7323                 0.0106                 0.0217

                     13                     14                     15
                      A                      A                      A
 Frequencies --    229.9800               244.4274               246.6844
 Red. masses --      4.2071                 3.0989                 2.3416
 Frc consts  --      0.1311                 0.1091                 0.0840
 IR Inten    --      0.4014                 1.4829                 0.0001

                     16                     17                     18
                      A                      A                      A
 Frequencies --    260.9515               264.1961               272.4333
 Red. masses --      2.0491                 2.0275                 1.2803
 Frc consts  --      0.0822                 0.0834                 0.0560
 IR Inten    --      0.0056                 0.8803                 0.0775

                     19                     20                     21
                      A                      A                      A
 Frequencies --    305.0665               338.2042               350.6473
 Red. masses --      3.3326                 3.8747                 4.5481
 Frc consts  --      0.1827                 0.2611                 0.3295
 IR Inten    --      0.1062                 3.0206                 1.8147

                     22                     23                     24
                      A                      A                      A
 Frequencies --    362.1299               367.2918               381.7135
 Red. masses --      6.0466                 3.6976                 3.4089
 Frc consts  --      0.4672                 0.2939                 0.2926
 IR Inten    --      1.0660                 0.7708                 1.2818

                     25                     26                     27
                      A                      A                      A
 Frequencies --    413.3532               417.7208               417.7727
 Red. masses --      4.3287                 2.8469                 2.8690
 Frc consts  --      0.4358                 0.2927                 0.2950
 IR Inten    --     12.9464                 0.0009                 0.3593

                     28                     29                     30
                      A                      A                      A
 Frequencies --    530.1424               541.4004               588.0771
 Red. masses --      3.2796                 3.2228                 4.0106
 Frc consts  --      0.5431                 0.5566                 0.8172
 IR Inten    --      1.8214                11.6043                 0.2170

                     31                     32                     33
                      A                      A                      A
 Frequencies --    604.4574               616.7447               630.2764
 Red. masses --      4.0888                 3.8941                 6.3426
 Frc consts  --      0.8802                 0.8727                 1.4845
 IR Inten    --     22.8222                 7.5839                 0.1296

                     34                     35                     36
                      A                      A                      A
 Frequencies --    630.3715               722.5832               722.7952
 Red. masses --      6.3372                 1.5943                 1.5228
 Frc consts  --      1.4837                 0.4905                 0.4687
 IR Inten    --      0.0608                 1.4291                83.7261

                     37                     38                     39
                      A                      A                      A
 Frequencies --    733.1344               748.3305               763.4252
 Red. masses --      5.6505                 4.9960                 2.7128
 Frc consts  --      1.7894                 1.6484                 0.9316
 IR Inten    --      0.4711                 3.9074                15.0050

                     40                     41                     42
                      A                      A                      A
 Frequencies --    776.5978               782.0130               791.7378
 Red. masses --      2.5947                 2.8106                 3.3472
 Frc consts  --      0.9220                 1.0127                 1.2362
 IR Inten    --      4.3014                12.6653                 4.0110

                     43                     44                     45
                      A                      A                      A
 Frequencies --    791.7675               832.0509               832.5666
 Red. masses --      3.2942                 4.6132                 4.6456
 Frc consts  --      1.2167                 1.8817                 1.8973
 IR Inten    --     14.1804                 4.3856                 7.7228

                     46                     47                     48
                      A                      A                      A
 Frequencies --    863.9498               864.1384               920.5400
 Red. masses --      1.2511                 1.2512                 2.5555
 Frc consts  --      0.5502                 0.5505                 1.2759
 IR Inten    --      0.1217                 0.3973                 0.2074

                     49                     50                     51
                      A                      A                      A
 Frequencies --    939.0591               945.4443               957.5884
 Red. masses --      1.5018                 1.6849                 1.4358
 Frc consts  --      0.7802                 0.8874                 0.7757
 IR Inten    --      5.6290                 0.3761                 1.8374

                     52                     53                     54
                      A                      A                      A
 Frequencies --    977.2650               987.4582               998.0430
 Red. masses --      6.4544                 4.7277                 2.1442
 Frc consts  --      3.6319                 2.7160                 1.2584
 IR Inten    --     70.6247                17.3493                 1.1789

                     55                     56                     57
                      A                      A                      A
 Frequencies --    999.1646              1001.3269              1001.4378
 Red. masses --      2.3006                 1.4447                 1.4800
 Frc consts  --      1.3532                 0.8535                 0.8745
 IR Inten    --      0.4786                 1.2623                 0.1795

                     58                     59                     60
                      A                      A                      A
 Frequencies --   1016.4181              1017.5917              1018.0237
 Red. masses --      4.2515                 4.9380                 3.3105
 Frc consts  --      2.5878                 3.0127                 2.0215
 IR Inten    --      9.3302                 0.5265                15.7276

                     61                     62                     63
                      A                      A                      A
 Frequencies --   1022.5407              1023.7891              1024.7435
 Red. masses --      1.3597                 1.4723                 1.4581
 Frc consts  --      0.8377                 0.9092                 0.9021
 IR Inten    --      0.0339                 0.0351                 3.6161

                     64                     65                     66
                      A                      A                      A
 Frequencies --   1026.9207              1033.0564              1047.0934
 Red. masses --      2.7313                 3.4700                 2.8939
 Frc consts  --      1.6970                 2.1819                 1.8694
 IR Inten    --      0.6102                 5.3365                 6.6204

                     67                     68                     69
                      A                      A                      A
 Frequencies --   1052.8729              1056.2452              1064.5125
 Red. masses --      2.2254                 2.6034                 1.9397
 Frc consts  --      1.4535                 1.7113                 1.2950
 IR Inten    --      3.2183                 0.1998                 4.4040

                     70                     71                     72
                      A                      A                      A
 Frequencies --   1065.0658              1114.2330              1115.0964
 Red. masses --      1.9430                 1.4380                 1.4323
 Frc consts  --      1.2986                 1.0518                 1.0493
 IR Inten    --      2.8351                 8.5224                16.6635

                     73                     74                     75
                      A                      A                      A
 Frequencies --   1169.3559              1170.1906              1170.2693
 Red. masses --      2.5353                 1.0710                 1.1643
 Frc consts  --      2.0425                 0.8641                 0.9395
 IR Inten    --    227.4848                 0.1215                29.4350

                     76                     77                     78
                      A                      A                      A
 Frequencies --   1172.1506              1193.5262              1193.9862
 Red. masses --      3.8759                 1.1102                 1.1147
 Frc consts  --      3.1375                 0.9318                 0.9363
 IR Inten    --     20.6039                 0.3626                 3.1847

                     79                     80                     81
                      A                      A                      A
 Frequencies --   1206.3186              1215.1264              1227.7514
 Red. masses --      1.5121                 1.3551                 2.1226
 Frc consts  --      1.2964                 1.1789                 1.8851
 IR Inten    --      0.2585                26.8764                 0.0806

                     82                     83                     84
                      A                      A                      A
 Frequencies --   1233.8309              1236.8468              1245.7636
 Red. masses --      1.4890                 1.5181                 1.4226
 Frc consts  --      1.3355                 1.3683                 1.3007
 IR Inten    --      2.4859                 2.4060                23.7032

                     85                     86                     87
                      A                      A                      A
 Frequencies --   1248.2705              1304.1105              1324.2147
 Red. masses --      1.3592                 1.9435                 1.6283
 Frc consts  --      1.2479                 1.9474                 1.6822
 IR Inten    --     11.7612                20.5045                12.4007

                     88                     89                     90
                      A                      A                      A
 Frequencies --   1326.3931              1340.5534              1362.2278
 Red. masses --      1.5795                 1.5030                 1.2376
 Frc consts  --      1.6373                 1.5914                 1.3531
 IR Inten    --      1.4055                 0.5886                 7.7499

                     91                     92                     93
                      A                      A                      A
 Frequencies --   1370.0030              1372.7490              1377.7624
 Red. masses --      1.7806                 1.9193                 1.4122
 Frc consts  --      1.9691                 2.1309                 1.5794
 IR Inten    --     13.8917                12.8975                 4.5327

                     94                     95                     96
                      A                      A                      A
 Frequencies --   1405.3366              1405.5634              1419.3501
 Red. masses --      4.9538                 4.7914                 2.0108
 Frc consts  --      5.7643                 5.5772                 2.3867
 IR Inten    --      3.1752                 0.6290                 6.0808

                     97                     98                     99
                      A                      A                      A
 Frequencies --   1434.0074              1452.0571              1458.9479
 Red. masses --      2.0738                 1.0455                 1.0419
 Frc consts  --      2.5126                 1.2988                 1.3067
 IR Inten    --     32.7735                 2.1379                 0.5435

                    100                    101                    102
                      A                      A                      A
 Frequencies --   1472.5467              1484.4363              1488.7781
 Red. masses --      1.0784                 1.1647                 1.4315
 Frc consts  --      1.3777                 1.5121                 1.8694
 IR Inten    --     11.7357                 3.1394                 0.1781

                    103                    104                    105
                      A                      A                      A
 Frequencies --   1495.4347              1497.8491              1505.4774
 Red. masses --      2.0831                 1.8414                 1.5521
 Frc consts  --      2.7447                 2.4341                 2.0726
 IR Inten    --      2.8796                22.6699                76.0132

                    106                    107                    108
                      A                      A                      A
 Frequencies --   1538.7495              1538.7512              1671.4052
 Red. masses --      2.6058                 2.6061                 6.4175
 Frc consts  --      3.6351                 3.6356                10.5629
 IR Inten    --      4.7173                12.6746                 1.4793

                    109                    110                    111
                      A                      A                      A
 Frequencies --   1671.4177              1691.8008              1691.9123
 Red. masses --      6.4178                 6.4377                 6.4335
 Frc consts  --     10.5635                10.8562                10.8505
 IR Inten    --      0.3550                 4.7508                 1.8129

                    112                    113                    114
                      A                      A                      A
 Frequencies --   1734.7081              1760.7496              3071.4048
 Red. masses --     11.1715                11.3258                 1.0350
 Frc consts  --     19.8068                20.6878                 5.7524
 IR Inten    --     64.2655               250.8393                14.0955

                    115                    116                    117
                      A                      A                      A
 Frequencies --   3072.8053              3092.8555              3092.9358
 Red. masses --      1.0360                 1.0661                 1.0661
 Frc consts  --      5.7632                 6.0082                 6.0089
 IR Inten    --      7.0083                52.6941                 6.2226

                    118                    119                    120
                      A                      A                      A
 Frequencies --   3118.5610              3118.7138              3173.6685
 Red. masses --      1.0876                 1.0876                 1.1047
 Frc consts  --      6.2323                 6.2329                 6.5559
 IR Inten    --     27.6345                10.8037                 3.1763

                    121                    122                    123
                      A                      A                      A
 Frequencies --   3174.4748              3179.2379              3179.2868
 Red. masses --      1.1042                 1.1072                 1.1072
 Frc consts  --      6.5563                 6.5939                 6.5941
 IR Inten    --     11.8383                10.1244                17.2153

                    124                    125                    126
                      A                      A                      A
 Frequencies --   3189.9796              3191.6418              3194.8048
 Red. masses --      1.1060                 1.1052                 1.0874
 Frc consts  --      6.6310                 6.6332                 6.5392
 IR Inten    --      0.0209                12.3645                 4.4214

                    127                    128                    129
                      A                      A                      A
 Frequencies --   3194.8248              3197.5638              3197.6108
 Red. masses --      1.0874                 1.0900                 1.0900
 Frc consts  --      6.5392                 6.5661                 6.5663
 IR Inten    --      2.6763                 0.8729                 1.1532

                    130                    131                    132
                      A                      A                      A
 Frequencies --   3208.3701              3208.3876              3218.9625
 Red. masses --      1.0913                 1.0913                 1.0960
 Frc consts  --      6.6184                 6.6185                 6.6913
 IR Inten    --      2.9379                 2.7409                 6.9891

                    133                    134                    135
                      A                      A                      A
 Frequencies --   3218.9853              3228.8533              3228.8830
 Red. masses --      1.0961                 1.1006                 1.1006
 Frc consts  --      6.6914                 6.7603                 6.7604
 IR Inten    --     21.4368                13.8652                 8.9717

 - Thermochemistry -
 -------------------
 Temperature   298.150 Kelvin.  Pressure   1.00000 Atm.
 Atom     1 has atomic number  7 and mass  14.00307

 Molecular mass:   334.16813 amu.
 Principal axes and moments of inertia in atomic units:
                           1         2         3
     Eigenvalues --  4996.05793********************
           X            0.99999   0.00000   0.00390
           Y           -0.00000   1.00000  -0.00000
           Z           -0.00390   0.00000   0.99999
 This molecule is an asymmetric top.
 Rotational symmetry number  1.
 Warning -- assumption of classical behavior for rotation
           may cause significant error
 Rotational temperatures (Kelvin)      0.01734     0.00606     0.00544
 Rotational constants (GHZ):           0.36123     0.12622     0.11327
    2 imaginary frequencies ignored.
 Zero-point vibrational energy    1032598.8 (Joules/Mol)
                                  246.79704 (Kcal/Mol)
 Warning -- explicit consideration of  30 degrees of freedom as
           vibrations may cause significant error
 Vibrational temperatures:     40.51    46.22    59.06    60.78    81.76
          (Kelvin)            135.75   177.69   192.87   229.94   326.26
                              330.89   351.68   354.92   375.45   380.12
                              391.97   438.92   486.60   504.50   521.02
                              528.45   549.20   594.72   601.01   601.08
                              762.76   778.95   846.11   869.68   887.36
                              906.83   906.96  1039.64  1039.94  1054.82
                             1076.68  1098.40  1117.35  1125.14  1139.13
                             1139.18  1197.14  1197.88  1243.03  1243.30
                             1324.45  1351.10  1360.28  1377.76  1406.07
                             1420.73  1435.96  1437.57  1440.69  1440.85
                             1462.40  1464.09  1464.71  1471.21  1473.00
                             1474.38  1477.51  1486.34  1506.53  1514.85
                             1519.70  1531.60  1532.39  1603.13  1604.38
                             1682.44  1683.64  1683.76  1686.46  1717.22
                             1717.88  1735.62  1748.30  1766.46  1775.21
                             1779.55  1792.38  1795.98  1876.32  1905.25
                             1908.38  1928.76  1959.94  1971.13  1975.08
                             1982.29  2021.97  2022.29  2042.13  2063.22
                             2089.19  2099.10  2118.67  2135.77  2142.02
                             2151.60  2155.07  2166.05  2213.92  2213.92
                             2404.78  2404.80  2434.12  2434.28  2495.86
                             2533.33  4419.07  4421.08  4449.93  4450.04
                             4486.91  4487.13  4566.20  4567.36  4574.21
                             4574.28  4589.67  4592.06  4596.61  4596.64
                             4600.58  4600.65  4616.13  4616.15  4631.37
                             4631.40  4645.60  4645.64

 Zero-point correction=                           0.393296 (Hartree/Particle)
 Thermal correction to Energy=                    0.413108
 Thermal correction to Enthalpy=                  0.414052
 Thermal correction to Gibbs Free Energy=         0.343474
 Sum of electronic and zero-point Energies=          -1071.055140
 Sum of electronic and thermal Energies=             -1071.035328
 Sum of electronic and thermal Enthalpies=           -1071.034384
 Sum of electronic and thermal Free Energies=        -1071.104962

                     E (Thermal)             CV                S
                      KCal/Mol        Cal/Mol-Kelvin    Cal/Mol-Kelvin
 Total                  259.229             79.857            148.546
 Electronic               0.000              0.000              0.000
 Translational            0.889              2.981             43.314
 Rotational               0.889              2.981             35.386
 Vibrational            257.452             73.896             69.846
 Vibration     1          0.593              1.984              5.955
 Vibration     2          0.594              1.983              5.694
 Vibration     3          0.594              1.981              5.208
 Vibration     4          0.595              1.980              5.151
 Vibration     5          0.596              1.975              4.564
 Vibration     6          0.603              1.953              3.568
 Vibration     7          0.610              1.929              3.045
 Vibration     8          0.613              1.919              2.887
 Vibration     9          0.622              1.892              2.552
 Vibration    10          0.650              1.800              1.904
 Vibration    11          0.652              1.795              1.879
 Vibration    12          0.660              1.772              1.770
 Vibration    13          0.661              1.768              1.754
 Vibration    14          0.669              1.744              1.655
 Vibration    15          0.671              1.739              1.634
 Vibration    16          0.675              1.724              1.581
 Vibration    17          0.696              1.664              1.389
 Vibration    18          0.719              1.599              1.221
 Vibration    19          0.728              1.574              1.163
 Vibration    20          0.736              1.550              1.113
 Vibration    21          0.740              1.540              1.091
 Vibration    22          0.751              1.509              1.032
 Vibration    23          0.777              1.441              0.915
 Vibration    24          0.781              1.432              0.900
 Vibration    25          0.781              1.432              0.900
 Vibration    26          0.885              1.183              0.587
 Vibration    27          0.896              1.159              0.562
 Vibration    28          0.945              1.057              0.471
 Vibration    29          0.963              1.022              0.442
 Vibration    30          0.976              0.996              0.422

 Normal termination of Gaussian 16 at Thu Aug  4 10:02:06 2022.
