 Gaussian 16, Revision A.03,
 Gaussian 16:  ES64L-G16RevA.03 25-Dec-2016

 ----------------------------------------------------------------------
 #p pop=(regular,nbo,savenbos) freq=noraman def2svp empiricaldispersion
 =gd3bj output=wfx pbe1pbe
 ----------------------------------------------------------------------

 --------
 01_lig_b
 --------
 Symbolic Z-matrix:
 Charge =  0 Multiplicity = 1

                         Standard orientation:
 ---------------------------------------------------------------------
 Center     Atomic      Atomic             Coordinates (Angstroms)
 Number     Number       Type             X           Y           Z
 ---------------------------------------------------------------------
      1          6           0        2.346187    2.036559    1.042686
      2          6           0        1.688226    0.702565    0.683169
      3          6           0        2.662248   -0.200352   -0.027358
      4          7           0        2.406618   -1.071763   -0.924033
      5          6           0        3.605517   -1.872433   -1.143820
      6          6           0        4.660959   -1.166971   -0.279458
      7          8           0        3.909669   -0.163943    0.431996
      8          7           0       -0.154283    0.070078   -0.873925
      9          6           0        0.434777    0.921160   -0.127069
     10          8           0       -0.179601    2.086792    0.045319
     11          6           0       -1.314224    2.083390   -0.843956
     12          6           0       -1.465877    0.601719   -1.236820
     13          1           0       -1.607924    0.458637   -2.319461
     14          6           0       -2.594824   -0.107983   -0.511245
     15          6           0       -3.883759    0.430638   -0.598048
     16          6           0       -4.959140   -0.185018    0.035981
     17          6           0       -4.759285   -1.356846    0.764605
     18          6           0       -3.482083   -1.905457    0.843554
     19          6           0       -2.404569   -1.289736    0.208443
     20          6           0        1.259935   -0.070534    1.957686
     21          1           0        2.637942    2.596855    0.142816
     22          1           0        3.243459    1.855463    1.646768
     23          1           0        1.643874    2.653292    1.616839
     24          1           0        3.863555   -1.895571   -2.212475
     25          1           0        3.377254   -2.899031   -0.815522
     26          1           0        5.438465   -0.652521   -0.862796
     27          1           0        5.139835   -1.819477    0.462731
     28          1           0       -1.066535    2.732478   -1.697878
     29          1           0       -2.174615    2.491595   -0.301025
     30          1           0       -4.058254    1.340418   -1.180983
     31          1           0       -5.958419    0.249342   -0.045273
     32          1           0       -5.600740   -1.845524    1.261342
     33          1           0       -3.313004   -2.833377    1.394496
     34          1           0       -1.422741   -1.763715    0.265098
     35          1           0        2.121031   -0.161167    2.634498
     36          1           0        0.906955   -1.079436    1.693986
     37          1           0        0.458448    0.476536    2.473915
 ---------------------------------------------------------------------

 SCF Done:  E(RPBE1PBE) =  -840.817190519     A.U. after   14 cycles

 The electronic state is 1-A.
 Alpha  occ. eigenvalues --  -19.24737 -19.24511 -14.35281 -14.35271 -10.31435
 Alpha  occ. eigenvalues --  -10.31191 -10.29084 -10.29033 -10.27178 -10.26674
 Alpha  occ. eigenvalues --  -10.25755 -10.24154 -10.23664 -10.23630 -10.23582
 Alpha  occ. eigenvalues --  -10.23355 -10.23295 -10.22932 -10.22799  -1.12175
 Alpha  occ. eigenvalues --   -1.11847  -0.91814  -0.90615  -0.87267  -0.85578
 Alpha  occ. eigenvalues --   -0.79349  -0.76876  -0.75714  -0.74227  -0.70737
 Alpha  occ. eigenvalues --   -0.66219  -0.65496  -0.64126  -0.61783  -0.59554
 Alpha  occ. eigenvalues --   -0.59403  -0.54802  -0.53627  -0.52353  -0.51761
 Alpha  occ. eigenvalues --   -0.50977  -0.48833  -0.47734  -0.46661  -0.45867
 Alpha  occ. eigenvalues --   -0.44694  -0.44630  -0.44049  -0.43284  -0.42624
 Alpha  occ. eigenvalues --   -0.41862  -0.41392  -0.40609  -0.38884  -0.37809
 Alpha  occ. eigenvalues --   -0.37518  -0.37372  -0.36882  -0.36157  -0.36018
 Alpha  occ. eigenvalues --   -0.35312  -0.34963  -0.34853  -0.28308  -0.26299
 Alpha  occ. eigenvalues --   -0.25681  -0.25374  -0.24769  -0.24264
 Alpha virt. eigenvalues --   -0.00362   0.00167   0.02490   0.03720   0.06347
 Alpha virt. eigenvalues --    0.07741   0.08189   0.09114   0.10657   0.11004
 Alpha virt. eigenvalues --    0.11598   0.11861   0.12451   0.12908   0.13302

 Mulliken charges:
               1
     1  C    0.049809
     2  C   -0.361825
     3  C    0.159983
     4  N   -0.237228
     5  C    0.054760
     6  C    0.141080
     7  O   -0.344107
     8  N   -0.219354
     9  C    0.198851
    10  O   -0.336131
    11  C    0.230775
    12  C    0.000964
    13  H    0.061434
    14  C   -0.051405
    15  C   -0.028469
    16  C   -0.021595
    17  C   -0.013057
    18  C   -0.020331
    19  C   -0.006997
    20  C    0.026562
    21  H    0.043794
    22  H    0.053990
    23  H    0.052294
    24  H    0.052569
    25  H    0.052420
    26  H    0.051648
    27  H    0.050329
    28  H    0.046762
    29  H    0.047226
    30  H    0.006884
    31  H    0.017711
    32  H    0.018948
    33  H    0.017857
    34  H    0.032120
    35  H    0.050568
    36  H    0.066044
    37  H    0.055116
 Sum of Mulliken charges =  -0.00000

 Dipole moment (field-independent basis, Debye):
    X=              0.9810    Y=              0.5375    Z=              0.4915  Tot=              1.2218
 Quadrupole moment (field-independent basis, Debye-Ang):
   XX=            -95.1945   YY=           -106.9255   ZZ=           -110.7251
   XY=             -7.8084   XZ=             -0.7629   YZ=             -6.2026

  Exact polarizability: 209.362  -1.616 160.783  -3.991 -11.220 134.088
 Approx polarizability: 264.132  -2.607 247.804  -0.646 -13.860 209.616

 Summary of Natural Population Analysis:

                                       Natural Population
                Natural  -----------------------------------------------
    Atom  No    Charge         Core      Valence    Rydberg      Total
 -----------------------------------------------------------------------
      C    1   -0.64760      1.99925     4.63431    0.01404     6.64760
      C    2   -0.17138      1.99880     4.15482    0.01776     6.17138
      C    3    0.61843      1.99900     3.33304    0.04953     5.38157
      N    4   -0.53309      1.99924     5.51816    0.01569     7.53309
      C    5   -0.27411      1.99920     4.25819    0.01672     6.27411
      C    6   -0.08992      1.99911     4.07420    0.01662     6.08992
      O    7   -0.57533      1.99964     6.56507    0.01062     8.57533
      N    8   -0.54611      1.99927     5.53048    0.01636     7.54611
      C    9    0.63477      1.99899     3.31542    0.05082     5.36523
      O   10   -0.56814      1.99965     6.55770    0.01079     8.56814
      C   11   -0.07763      1.99904     4.05941    0.01918     6.07763
      C   12   -0.09349      1.99896     4.07071    0.02382     6.09349
      H   13    0.25546      0.00000     0.74116    0.00338     0.74454
      C   14   -0.05556      1.99885     4.03683    0.01988     6.05556
      C   15   -0.23680      1.99889     4.22292    0.01499     6.23680
      C   16   -0.22184      1.99894     4.20743    0.01547     6.22184
      C   17   -0.23517      1.99894     4.22110    0.01513     6.23517
      C   18   -0.21919      1.99895     4.20491    0.01534     6.21919
      C   19   -0.22152      1.99888     4.20665    0.01599     6.22152
      C   20   -0.62442      1.99923     4.61336    0.01183     6.62442
      H   21    0.23387      0.00000     0.76372    0.00241     0.76613
      H   22    0.24097      0.00000     0.75644    0.00259     0.75903
      H   23    0.24034      0.00000     0.75707    0.00259     0.75966
      H   24    0.22667      0.00000     0.77038    0.00295     0.77333
      H   25    0.22332      0.00000     0.77316    0.00353     0.77668
      H   26    0.20614      0.00000     0.79069    0.00316     0.79386
      H   27    0.20976      0.00000     0.78741    0.00283     0.79024
      H   28    0.20966      0.00000     0.78705    0.00329     0.79034
      H   29    0.21928      0.00000     0.77804    0.00268     0.78072
      H   30    0.22477      0.00000     0.77221    0.00302     0.77523
      H   31    0.22952      0.00000     0.76772    0.00276     0.77048
      H   32    0.22926      0.00000     0.76801    0.00273     0.77074
      H   33    0.22909      0.00000     0.76817    0.00274     0.77091
      H   34    0.25143      0.00000     0.74482    0.00376     0.74857
      H   35    0.23176      0.00000     0.76549    0.00275     0.76824
      H   36    0.24248      0.00000     0.75474    0.00277     0.75752
      H   37    0.23436      0.00000     0.76299    0.00265     0.76564
 =======================================================================
   * Total *   -0.00000     37.98285    99.59396    0.42319   138.00000

 ******    2 imaginary frequencies (negative Signs) ******

                      1                      2                      3
                      A                      A                      A
 Frequencies --   -116.8632               -64.5536                31.3091
 Red. masses --      8.7950                 5.6977                 4.0630
 Frc consts  --      0.0708                 0.0140                 0.0023
 IR Inten    --      0.4893                 1.0409                 0.0789

                      4                      5                      6
                      A                      A                      A
 Frequencies --     43.4144                75.5716                85.1027
 Red. masses --      3.8283                 1.7770                 5.2049
 Frc consts  --      0.0043                 0.0060                 0.0222
 IR Inten    --      0.1440                 0.3094                 0.6724

                      7                      8                      9
                      A                      A                      A
 Frequencies --    117.4749               155.5969               166.2917
 Red. masses --      4.2609                 2.9231                 2.9173
 Frc consts  --      0.0346                 0.0417                 0.0475
 IR Inten    --      1.2389                 1.8308                 0.8146

                     10                     11                     12
                      A                      A                      A
 Frequencies --    187.9405               223.9965               258.6556
 Red. masses --      3.7321                 1.3715                 2.5173
 Frc consts  --      0.0777                 0.0405                 0.0992
 IR Inten    --      2.4842                 0.0741                 0.2692

                     13                     14                     15
                      A                      A                      A
 Frequencies --    268.4826               275.0571               310.1762
 Red. masses --      2.0517                 1.3787                 2.8430
 Frc consts  --      0.0871                 0.0615                 0.1612
 IR Inten    --      0.6663                 0.5944                 0.2498

                     16                     17                     18
                      A                      A                      A
 Frequencies --    320.3868               340.1662               349.3338
 Red. masses --      2.6432                 4.9223                 3.3576
 Frc consts  --      0.1599                 0.3356                 0.2414
 IR Inten    --      4.8207                 2.5661                 1.2102

                     19                     20                     21
                      A                      A                      A
 Frequencies --    401.7951               417.5457               454.3155
 Red. masses --      4.2529                 2.8949                 4.2033
 Frc consts  --      0.4045                 0.2974                 0.5112
 IR Inten    --      8.9920                 0.1590                 3.1733

                     22                     23                     24
                      A                      A                      A
 Frequencies --    510.4989               595.5941               605.0604
 Red. masses --      3.5729                 3.9664                 4.2097
 Frc consts  --      0.5486                 0.8290                 0.9080
 IR Inten    --      3.7285                12.7129                 4.2802

                     25                     26                     27
                      A                      A                      A
 Frequencies --    630.7646               720.9823               726.2727
 Red. masses --      6.3122                 4.9688                 1.7237
 Frc consts  --      1.4797                 1.5218                 0.5357
 IR Inten    --      0.1885                 7.1751                31.1543

                     28                     29                     30
                      A                      A                      A
 Frequencies --    743.0887               757.3002               761.2764
 Red. masses --      2.8808                 3.2948                 3.3185
 Frc consts  --      0.9372                 1.1133                 1.1331
 IR Inten    --     15.1028                20.7874                 3.2090

                     31                     32                     33
                      A                      A                      A
 Frequencies --    768.6056               789.5295               832.7249
 Red. masses --      3.0326                 3.6710                 3.4338
 Frc consts  --      1.0556                 1.3483                 1.4029
 IR Inten    --      4.7369                 1.9383                 1.8302

                     34                     35                     36
                      A                      A                      A
 Frequencies --    837.0817               868.5753               921.0049
 Red. masses --      1.5055                 1.2529                 2.8848
 Frc consts  --      0.6215                 0.5569                 1.4417
 IR Inten    --      3.3488                 0.1252                 2.3291

                     37                     38                     39
                      A                      A                      A
 Frequencies --    943.2205               958.0537               966.5023
 Red. masses --      1.3729                 1.6825                 4.0518
 Frc consts  --      0.7196                 0.9099                 2.2300
 IR Inten    --      0.6705                 2.1333                35.0553

                     40                     41                     42
                      A                      A                      A
 Frequencies --    976.6831              1002.4000              1007.1197
 Red. masses --      2.7799                 2.7136                 1.4329
 Frc consts  --      1.5624                 1.6065                 0.8563
 IR Inten    --      9.6815                 5.0156                 0.1054

                     43                     44                     45
                      A                      A                      A
 Frequencies --   1016.0815              1017.2631              1020.4736
 Red. masses --      3.0849                 4.0002                 1.4686
 Frc consts  --      1.8765                 2.4389                 0.9011
 IR Inten    --      8.9287                 3.5691                 0.9189

                     46                     47                     48
                      A                      A                      A
 Frequencies --   1027.4680              1028.2553              1031.0907
 Red. masses --      1.9093                 2.3581                 4.2946
 Frc consts  --      1.1876                 1.4690                 2.6901
 IR Inten    --     20.4181                17.1636                10.8410

                     49                     50                     51
                      A                      A                      A
 Frequencies --   1049.3312              1058.0230              1061.3986
 Red. masses --      2.4101                 2.7354                 2.4100
 Frc consts  --      1.5635                 1.8041                 1.5996
 IR Inten    --      6.5907                28.2880                 5.4593

                     52                     53                     54
                      A                      A                      A
 Frequencies --   1076.2255              1111.9060              1112.3935
 Red. masses --      2.6525                 1.6640                 1.5190
 Frc consts  --      1.8101                 1.2121                 1.1074
 IR Inten    --      6.8549                 0.4453                 2.4108

                     55                     56                     57
                      A                      A                      A
 Frequencies --   1169.0470              1171.5527              1177.3677
 Red. masses --      1.0788                 3.0033                 2.9033
 Frc consts  --      0.8687                 2.4287                 2.3712
 IR Inten    --      1.1623                12.6746               256.4767

                     58                     59                     60
                      A                      A                      A
 Frequencies --   1187.8373              1210.0191              1215.9537
 Red. masses --      1.1096                 1.1875                 1.3791
 Frc consts  --      0.9224                 1.0244                 1.2013
 IR Inten    --      2.6673                 3.5181                 6.9561

                     61                     62                     63
                      A                      A                      A
 Frequencies --   1226.7142              1236.4497              1242.3655
 Red. masses --      1.6956                 1.1571                 1.7617
 Frc consts  --      1.5033                 1.0422                 1.6021
 IR Inten    --      2.6199                 6.9900                 9.5163

                     64                     65                     66
                      A                      A                      A
 Frequencies --   1248.8449              1280.1491              1312.1965
 Red. masses --      1.5709                 1.6870                 1.6311
 Frc consts  --      1.4435                 1.6289                 1.6548
 IR Inten    --     16.5054                32.7334                 3.1257

                     67                     68                     69
                      A                      A                      A
 Frequencies --   1329.0917              1337.6385              1352.7393
 Red. masses --      1.3967                 1.9738                 1.6800
 Frc consts  --      1.4536                 2.0808                 1.8113
 IR Inten    --      1.8685                33.8447                 3.7175

                     70                     71                     72
                      A                      A                      A
 Frequencies --   1362.6924              1388.9080              1402.6290
 Red. masses --      1.2425                 1.3541                 7.2580
 Frc consts  --      1.3594                 1.5390                 8.4131
 IR Inten    --      9.3023                17.0729                 1.2881

                     73                     74                     75
                      A                      A                      A
 Frequencies --   1431.4797              1436.8230              1450.5512
 Red. masses --      2.0387                 1.8176                 1.0690
 Frc consts  --      2.4613                 2.2109                 1.3252
 IR Inten    --     17.7508                48.6721                 2.4768

                     76                     77                     78
                      A                      A                      A
 Frequencies --   1456.1044              1466.5542              1470.5256
 Red. masses --      1.0487                 1.0972                 1.0904
 Frc consts  --      1.3101                 1.3903                 1.3892
 IR Inten    --      0.3101                 1.6886                 8.1122

                     79                     80                     81
                      A                      A                      A
 Frequencies --   1483.2569              1487.5226              1496.6708
 Red. masses --      1.1999                 2.2204                 1.2700
 Frc consts  --      1.5553                 2.8948                 1.6762
 IR Inten    --      6.8205                 2.7904                22.5700

                     82                     83                     84
                      A                      A                      A
 Frequencies --   1506.7276              1538.1584              1670.8109
 Red. masses --      1.5322                 2.6159                 6.5984
 Frc consts  --      2.0494                 3.6464                10.8529
 IR Inten    --     95.2316                15.2208                 3.4232

                     85                     86                     87
                      A                      A                      A
 Frequencies --   1694.5051              1731.4860              1760.7894
 Red. masses --      6.5713                10.6411                10.8857
 Frc consts  --     11.1170                18.7964                19.8849
 IR Inten    --      6.3097                45.6439               256.6593

                     88                     89                     90
                      A                      A                      A
 Frequencies --   3060.4426              3073.3015              3081.7766
 Red. masses --      1.0339                 1.0619                 1.0370
 Frc consts  --      5.7053                 5.9097                 5.8025
 IR Inten    --      9.8225                33.2947                11.7892

                     91                     92                     93
                      A                      A                      A
 Frequencies --   3086.7012              3096.0751              3098.2398
 Red. masses --      1.0713                 1.0616                 1.0803
 Frc consts  --      6.0140                 5.9958                 6.1096
 IR Inten    --     18.8012                45.3064                24.9031

                     94                     95                     96
                      A                      A                      A
 Frequencies --   3135.9009              3165.0835              3168.8124
 Red. masses --      1.1092                 1.1119                 1.1060
 Frc consts  --      6.4267                 6.5627                 6.5431
 IR Inten    --      8.8567                20.7246                 7.5909

                     97                     98                     99
                      A                      A                      A
 Frequencies --   3174.2235              3180.2418              3181.7402
 Red. masses --      1.1057                 1.1036                 1.1054
 Frc consts  --      6.5641                 6.5765                 6.5935
 IR Inten    --     10.5529                 8.7850                16.4289

                    100                    101                    102
                      A                      A                      A
 Frequencies --   3186.4150              3199.1025              3204.8737
 Red. masses --      1.0912                 1.1054                 1.0876
 Frc consts  --      6.5277                 6.6653                 6.5818
 IR Inten    --      3.8599                 7.2871                 0.4933

                    103                    104                    105
                      A                      A                      A
 Frequencies --   3215.4912              3225.8709              3234.0003
 Red. masses --      1.0930                 1.0975                 1.0976
 Frc consts  --      6.6585                 6.7291                 6.7638
 IR Inten    --     12.8145                10.8775                 5.6405

 - Thermochemistry -
 -------------------
 Temperature   298.150 Kelvin.  Pressure   1.00000 Atm.
 Atom     1 has atomic number  6 and mass  12.00000

 Molecular mass:   258.13683 amu.
 Principal axes and moments of inertia in atomic units:
                           1         2         3
     Eigenvalues --  2214.110588760.964919554.08655
           X            0.99999  -0.00413   0.00114
           Y            0.00414   0.99996  -0.00842
           Z           -0.00110   0.00843   0.99996
 This molecule is an asymmetric top.
 Rotational symmetry number  1.
 Warning -- assumption of classical behavior for rotation
           may cause significant error
 Rotational temperatures (Kelvin)      0.03912     0.00989     0.00907
 Rotational constants (GHZ):           0.81511     0.20600     0.18890
    2 imaginary frequencies ignored.
 Zero-point vibrational energy     817751.2 (Joules/Mol)
                                  195.44722 (Kcal/Mol)
 Warning -- explicit consideration of  22 degrees of freedom as
           vibrations may cause significant error
 Vibrational temperatures:     45.05    62.46   108.73   122.44   169.02
          (Kelvin)            223.87   239.26   270.40   322.28   372.15
                              386.29   395.75   446.27   460.97   489.42
                              502.61   578.09   600.76   653.66   734.49
                              856.93   870.55   907.53  1037.33  1044.94
                             1069.14  1089.59  1095.31  1105.85  1135.96
                             1198.11  1204.37  1249.69  1325.12  1357.08
                             1378.43  1390.58  1405.23  1442.23  1449.02
                             1461.91  1463.61  1468.23  1478.30  1479.43
                             1483.51  1509.75  1522.26  1527.12  1548.45
                             1599.78  1600.49  1682.00  1685.60  1693.97
                             1709.03  1740.95  1749.49  1764.97  1778.98
                             1787.49  1796.81  1841.85  1887.96  1912.27
                             1924.56  1946.29  1960.61  1998.33  2018.07
                             2059.58  2067.27  2087.02  2095.01  2110.04
                             2115.76  2134.08  2140.21  2153.38  2167.84
                             2213.07  2403.92  2438.01  2491.22  2533.38
                             4403.29  4421.80  4433.99  4441.07  4454.56
                             4457.68  4511.86  4553.85  4559.21  4567.00
                             4575.66  4577.81  4584.54  4602.80  4611.10
                             4626.37  4641.31  4653.01

 Zero-point correction=                           0.311465 (Hartree/Particle)
 Thermal correction to Energy=                    0.326906
 Thermal correction to Enthalpy=                  0.327851
 Thermal correction to Gibbs Free Energy=         0.267845
 Sum of electronic and zero-point Energies=           -840.505726
 Sum of electronic and thermal Energies=              -840.490284
 Sum of electronic and thermal Enthalpies=            -840.489340
 Sum of electronic and thermal Free Energies=         -840.549345

                     E (Thermal)             CV                S
                      KCal/Mol        Cal/Mol-Kelvin    Cal/Mol-Kelvin
 Total                  205.137             61.144            126.291
 Electronic               0.000              0.000              0.000
 Translational            0.889              2.981             42.545
 Rotational               0.889              2.981             33.582
 Vibrational            203.359             55.182             50.164
 Vibration     1          0.594              1.983              5.745
 Vibration     2          0.595              1.980              5.097
 Vibration     3          0.599              1.965              4.003
 Vibration     4          0.601              1.960              3.770
 Vibration     5          0.608              1.935              3.141
 Vibration     6          0.620              1.896              2.603
 Vibration     7          0.624              1.884              2.477
 Vibration     8          0.633              1.856              2.248
 Vibration     9          0.649              1.805              1.927
 Vibration    10          0.667              1.748              1.671
 Vibration    11          0.673              1.731              1.606
 Vibration    12          0.677              1.719              1.564
 Vibration    13          0.699              1.654              1.361
 Vibration    14          0.706              1.635              1.308
 Vibration    15          0.720              1.595              1.211
 Vibration    16          0.727              1.577              1.169
 Vibration    17          0.767              1.466              0.956
 Vibration    18          0.781              1.432              0.900
 Vibration    19          0.813              1.351              0.783
 Vibration    20          0.866              1.227              0.632
 Vibration    21          0.953              1.041              0.457
 Vibration    22          0.964              1.021              0.441

 Normal termination of Gaussian 16 at Thu Nov  3 08:23:25 2022.
