 Gaussian 16, Revision A.03,
 Gaussian 16:  ES64L-G16RevA.03 25-Dec-2016

 ----------------------------------------------------------------------
 #p pop=(regular,nbo,savenbos) freq=noraman def2svp empiricaldispersion
 =gd3bj output=wfx pbe1pbe
 ----------------------------------------------------------------------

 --------
 02_lig_b
 --------
 Symbolic Z-matrix:
 Charge =  0 Multiplicity = 1

                         Standard orientation:
 ---------------------------------------------------------------------
 Center     Atomic      Atomic             Coordinates (Angstroms)
 Number     Number       Type             X           Y           Z
 ---------------------------------------------------------------------
      1          6           0        0.712850    1.047638    1.823953
      2          6           0       -0.000145   -0.000120    0.946325
      3          6           0        1.026128   -0.724469    0.119821
      4          7           0        1.042746   -0.943075   -1.140655
      5          6           0        2.189225   -1.807838   -1.419502
      6          6           0        3.034797   -1.672975   -0.155264
      7          1           0        3.420845   -2.630820    0.215449
      8          8           0        2.028892   -1.240243    0.822612
      9          6           0        4.123677   -0.634553   -0.189565
     10          6           0        4.097782    0.427384   -1.102659
     11          6           0        5.088123    1.407411   -1.054361
     12          6           0        6.106302    1.337831   -0.105156
     13          6           0        6.138845    0.278911    0.801938
     14          6           0        5.151153   -0.700906    0.757790
     15          7           0       -1.042830    0.943549   -1.140435
     16          6           0       -1.026259    0.724644    0.119999
     17          8           0       -2.028981    1.240335    0.822888
     18          6           0       -3.034893    1.673182   -0.154926
     19          1           0       -3.421086    2.630883    0.216011
     20          6           0       -2.189256    1.808474   -1.419058
     21          6           0       -4.123623    0.634601   -0.189485
     22          6           0       -5.151009    0.700501    0.758020
     23          6           0       -6.138562   -0.279460    0.801961
     24          6           0       -6.105957   -1.338089   -0.105494
     25          6           0       -5.087878   -1.407214   -1.054829
     26          6           0       -4.097666   -0.427032   -1.102911
     27          6           0       -0.713329   -1.048338    1.823227
     28          1           0        1.247879    1.779414    1.201138
     29          1           0        1.441734    0.548853    2.475205
     30          1           0       -0.025323    1.576705    2.440916
     31          1           0        2.684319   -1.479434   -2.342734
     32          1           0        1.824233   -2.836712   -1.571514
     33          1           0        3.321497    0.493797   -1.873623
     34          1           0        5.063799    2.227330   -1.775835
     35          1           0        6.882603    2.106298   -0.076924
     36          1           0        6.939596    0.213751    1.542313
     37          1           0        5.175831   -1.531652    1.468922
     38          1           0       -1.824202    2.837389   -1.570626
     39          1           0       -2.684279    1.480387   -2.342446
     40          1           0       -5.175726    1.531021    1.469407
     41          1           0       -6.939231   -0.214665    1.542437
     42          1           0       -6.882148   -2.106665   -0.077426
     43          1           0       -5.063504   -2.226894   -1.776585
     44          1           0       -3.321442   -0.493109   -1.873967
     45          1           0        0.024677   -1.577701    2.440123
     46          1           0       -1.248191   -1.779817    1.199902
     47          1           0       -1.442401   -0.549911    2.474545
 ---------------------------------------------------------------------

 SCF Done:  E(RPBE1PBE) =  -1071.45179075     A.U. after   14 cycles

 The electronic state is 1-A.
 Alpha  occ. eigenvalues --  -19.24051 -19.24046 -14.35148 -14.35144 -10.30771
 Alpha  occ. eigenvalues --  -10.30770 -10.29654 -10.29653 -10.26653 -10.25441
 Alpha  occ. eigenvalues --  -10.25440 -10.24699 -10.24699 -10.24295 -10.24295
 Alpha  occ. eigenvalues --  -10.24256 -10.24256 -10.24211 -10.24211 -10.24190
 Alpha  occ. eigenvalues --  -10.24190 -10.24118 -10.24117 -10.22760 -10.22759
 Alpha  occ. eigenvalues --   -1.11483  -1.11260  -0.90831  -0.89870  -0.88394
 Alpha  occ. eigenvalues --   -0.88242  -0.85379  -0.80818  -0.79275  -0.76569
 Alpha  occ. eigenvalues --   -0.76564  -0.74219  -0.73544  -0.70229  -0.66550
 Alpha  occ. eigenvalues --   -0.65459  -0.63650  -0.62694  -0.62153  -0.61871
 Alpha  occ. eigenvalues --   -0.60308  -0.58144  -0.54781  -0.54060  -0.53647
 Alpha  occ. eigenvalues --   -0.52311  -0.50690  -0.49620  -0.48225  -0.47960
 Alpha  occ. eigenvalues --   -0.47151  -0.46412  -0.46140  -0.45712  -0.44562
 Alpha  occ. eigenvalues --   -0.44114  -0.43797  -0.43783  -0.43313  -0.43187
 Alpha  occ. eigenvalues --   -0.41521  -0.41165  -0.40952  -0.38858  -0.38528
 Alpha  occ. eigenvalues --   -0.38161  -0.37798  -0.37540  -0.37279  -0.36796
 Alpha  occ. eigenvalues --   -0.36225  -0.35474  -0.35369  -0.35070  -0.34734
 Alpha  occ. eigenvalues --   -0.34191  -0.28091  -0.27130  -0.27089  -0.26807
 Alpha  occ. eigenvalues --   -0.26758  -0.25165  -0.24562  -0.24068
 Alpha virt. eigenvalues --   -0.01749  -0.01528  -0.00775  -0.00770   0.03603
 Alpha virt. eigenvalues --    0.03739   0.07081   0.07333   0.08265   0.08805
 Alpha virt. eigenvalues --    0.09372   0.10266   0.10689   0.11972   0.12344

 Mulliken charges:
               1
     1  C    0.016298
     2  C   -0.333139
     3  C    0.205939
     4  N   -0.249397
     5  C    0.169165
     6  C    0.040733
     7  H    0.033252
     8  O   -0.335806
     9  C   -0.002724
    10  C   -0.036196
    11  C   -0.021922
    12  C   -0.007519
    13  C   -0.022487
    14  C   -0.008115
    15  N   -0.249403
    16  C    0.205935
    17  O   -0.335800
    18  C    0.040687
    19  H    0.033255
    20  C    0.169202
    21  C   -0.002716
    22  C   -0.008104
    23  C   -0.022479
    24  C   -0.007519
    25  C   -0.021924
    26  C   -0.036204
    27  C    0.016298
    28  H    0.053059
    29  H    0.060369
    30  H    0.052892
    31  H    0.044110
    32  H    0.048402
    33  H    0.043428
    34  H    0.023101
    35  H    0.023786
    36  H    0.022507
    37  H    0.013687
    38  H    0.048404
    39  H    0.044110
    40  H    0.013688
    41  H    0.022503
    42  H    0.023784
    43  H    0.023105
    44  H    0.043427
    45  H    0.052884
    46  H    0.053068
    47  H    0.060371
 Sum of Mulliken charges =  -0.00000

 Dipole moment (field-independent basis, Debye):
    X=             -0.0002    Y=             -0.0003    Z=              1.0378  Tot=              1.0378
 Quadrupole moment (field-independent basis, Debye-Ang):
   XX=           -126.2896   YY=           -135.4195   ZZ=           -145.8656
   XY=             -0.1307   XZ=             -0.0007   YZ=              0.0004

  Exact polarizability: 275.418  28.725 206.177   0.003  -0.002 197.124
 Approx polarizability: 338.536  40.145 323.207   0.002  -0.007 341.377

 Summary of Natural Population Analysis:

                                       Natural Population
                Natural  -----------------------------------------------
    Atom  No    Charge         Core      Valence    Rydberg      Total
 -----------------------------------------------------------------------
      C    1   -0.63690      1.99924     4.62453    0.01314     6.63690
      C    2   -0.17090      1.99879     4.15487    0.01724     6.17090
      C    3    0.62278      1.99903     3.32677    0.05142     5.37722
      N    4   -0.53209      1.99927     5.51749    0.01534     7.53209
      C    5   -0.27046      1.99914     4.25068    0.02064     6.27046
      C    6    0.08244      1.99882     3.89318    0.02556     5.91756
      H    7    0.23426      0.00000     0.76250    0.00324     0.76574
      O    8   -0.57903      1.99966     6.56806    0.01130     8.57903
      C    9   -0.08340      1.99886     4.06656    0.01798     6.08340
      C   10   -0.22097      1.99890     4.20709    0.01498     6.22097
      C   11   -0.22000      1.99895     4.20559    0.01547     6.22000
      C   12   -0.22503      1.99895     4.21104    0.01504     6.22503
      C   13   -0.22308      1.99894     4.20895    0.01519     6.22308
      C   14   -0.20941      1.99890     4.19416    0.01635     6.20941
      N   15   -0.53209      1.99927     5.51748    0.01534     7.53209
      C   16    0.62278      1.99903     3.32678    0.05142     5.37722
      O   17   -0.57903      1.99966     6.56806    0.01130     8.57903
      C   18    0.08244      1.99882     3.89318    0.02556     5.91756
      H   19    0.23427      0.00000     0.76250    0.00324     0.76573
      C   20   -0.27047      1.99914     4.25068    0.02064     6.27047
      C   21   -0.08340      1.99886     4.06657    0.01798     6.08340
      C   22   -0.20940      1.99890     4.19416    0.01635     6.20940
      C   23   -0.22308      1.99894     4.20895    0.01519     6.22308
      C   24   -0.22502      1.99895     4.21104    0.01504     6.22502
      C   25   -0.22001      1.99895     4.20559    0.01547     6.22001
      C   26   -0.22097      1.99890     4.20709    0.01498     6.22097
      C   27   -0.63690      1.99924     4.62452    0.01314     6.63690
      H   28    0.23593      0.00000     0.76162    0.00245     0.76407
      H   29    0.24127      0.00000     0.75603    0.00270     0.75873
      H   30    0.23568      0.00000     0.76162    0.00270     0.76432
      H   31    0.23240      0.00000     0.76457    0.00303     0.76760
      H   32    0.22927      0.00000     0.76684    0.00389     0.77073
      H   33    0.24498      0.00000     0.75120    0.00383     0.75502
      H   34    0.23252      0.00000     0.76475    0.00273     0.76748
      H   35    0.23145      0.00000     0.76584    0.00271     0.76855
      H   36    0.23188      0.00000     0.76539    0.00273     0.76812
      H   37    0.23094      0.00000     0.76611    0.00296     0.76906
      H   38    0.22927      0.00000     0.76684    0.00389     0.77073
      H   39    0.23241      0.00000     0.76456    0.00303     0.76759
      H   40    0.23093      0.00000     0.76611    0.00296     0.76907
      H   41    0.23188      0.00000     0.76539    0.00273     0.76812
      H   42    0.23145      0.00000     0.76584    0.00271     0.76855
      H   43    0.23252      0.00000     0.76474    0.00273     0.76748
      H   44    0.24498      0.00000     0.75119    0.00383     0.75502
      H   45    0.23568      0.00000     0.76162    0.00270     0.76432
      H   46    0.23594      0.00000     0.76161    0.00245     0.76406
      H   47    0.24127      0.00000     0.75603    0.00270     0.75873
 =======================================================================
   * Total *   -0.00000     49.97608   127.47597    0.54795   178.00000

 ******    2 imaginary frequencies (negative Signs) ******

                      1                      2                      3
                      A                      A                      A
 Frequencies --    -40.9596               -35.1839                24.4880
 Red. masses --      6.5978                 4.6395                 5.8174
 Frc consts  --      0.0065                 0.0034                 0.0021
 IR Inten    --      0.0464                 0.2184                 0.0108

                      4                      5                      6
                      A                      A                      A
 Frequencies --     25.4849                44.7152                46.7256
 Red. masses --      5.1503                 3.6736                 3.6590
 Frc consts  --      0.0020                 0.0043                 0.0047
 IR Inten    --      0.1312                 0.0684                 0.0030

                      7                      8                      9
                      A                      A                      A
 Frequencies --     90.2686               100.4071               126.4048
 Red. masses --      4.9626                 5.8409                 4.7530
 Frc consts  --      0.0238                 0.0347                 0.0447
 IR Inten    --      3.5584                 0.0389                 1.2694

                     10                     11                     12
                      A                      A                      A
 Frequencies --    143.1274               157.1279               215.6140
 Red. masses --      4.9830                 3.0333                 2.0717
 Frc consts  --      0.0601                 0.0441                 0.0567
 IR Inten    --      1.1151                 0.2312                 0.0077

                     13                     14                     15
                      A                      A                      A
 Frequencies --    235.5889               240.5607               256.1914
 Red. masses --      3.1428                 1.5652                 2.9332
 Frc consts  --      0.1028                 0.0534                 0.1134
 IR Inten    --      0.6735                 0.2273                 0.0430

                     16                     17                     18
                      A                      A                      A
 Frequencies --    264.5977               279.8491               310.4305
 Red. masses --      1.1883                 3.1499                 3.0182
 Frc consts  --      0.0490                 0.1453                 0.1714
 IR Inten    --      0.5484                 0.0001                 0.0034

                     19                     20                     21
                      A                      A                      A
 Frequencies --    313.1581               324.4656               352.7563
 Red. masses --      3.5763                 3.0532                 4.0482
 Frc consts  --      0.2066                 0.1894                 0.2968
 IR Inten    --      0.0179                 3.4658                 2.6111

                     22                     23                     24
                      A                      A                      A
 Frequencies --    363.5685               375.0268               398.7284
 Red. masses --      4.7853                 4.7411                 3.3304
 Frc consts  --      0.3727                 0.3929                 0.3120
 IR Inten    --      0.8337                 1.1587                 0.1105

                     25                     26                     27
                      A                      A                      A
 Frequencies --    414.6741               419.1884               421.1847
 Red. masses --      2.9491                 2.8520                 2.8688
 Frc consts  --      0.2988                 0.2953                 0.2998
 IR Inten    --      7.3378                 0.0336                 5.4363

                     28                     29                     30
                      A                      A                      A
 Frequencies --    536.3382               542.4625               594.5593
 Red. masses --      3.2317                 3.3261                 4.0160
 Frc consts  --      0.5477                 0.5767                 0.8364
 IR Inten    --      6.4844                 4.0841                16.0612

                     31                     32                     33
                      A                      A                      A
 Frequencies --    597.4795               601.4145               630.0415
 Red. masses --      4.2017                 4.0055                 6.3345
 Frc consts  --      0.8837                 0.8536                 1.4815
 IR Inten    --     25.9896                 0.0046                 0.1479

                     34                     35                     36
                      A                      A                      A
 Frequencies --    630.1098               724.1528               724.2297
 Red. masses --      6.3319                 1.5452                 1.5545
 Frc consts  --      1.4812                 0.4774                 0.4804
 IR Inten    --      0.0003                53.9967                34.9362

                     37                     38                     39
                      A                      A                      A
 Frequencies --    735.3014               749.5877               758.6270
 Red. masses --      6.1015                 4.1510                 3.3355
 Frc consts  --      1.9436                 1.3742                 1.1310
 IR Inten    --      1.6264                 6.7009                24.0570

                     40                     41                     42
                      A                      A                      A
 Frequencies --    778.4060               784.3245               788.4747
 Red. masses --      2.6035                 2.5558                 3.9118
 Frc consts  --      0.9294                 0.9263                 1.4329
 IR Inten    --      9.4496                12.6351                 2.4449

                     43                     44                     45
                      A                      A                      A
 Frequencies --    788.8041               835.4889               841.4331
 Red. masses --      3.7436                 4.1500                 3.7294
 Frc consts  --      1.3724                 1.7068                 1.5557
 IR Inten    --      0.2563                18.4088                26.3126

                     46                     47                     48
                      A                      A                      A
 Frequencies --    868.9158               868.9412               921.2266
 Red. masses --      1.2487                 1.2489                 3.0459
 Frc consts  --      0.5555                 0.5556                 1.5230
 IR Inten    --      0.1699                 0.0806                 0.2786

                     49                     50                     51
                      A                      A                      A
 Frequencies --    937.2487               938.5383               956.6069
 Red. masses --      2.2245                 2.1080                 1.4399
 Frc consts  --      1.1513                 1.0940                 0.7763
 IR Inten    --    106.6441                 5.7589                 1.4887

                     52                     53                     54
                      A                      A                      A
 Frequencies --    966.2272               969.0853               996.2109
 Red. masses --      2.6927                 2.9126                 2.0699
 Frc consts  --      1.4811                 1.6116                 1.2103
 IR Inten    --     60.6039                 0.7467                20.4825

                     55                     56                     57
                      A                      A                      A
 Frequencies --    998.3383               998.9971              1005.0773
 Red. masses --      3.6953                 2.3804                 2.9704
 Frc consts  --      2.1700                 1.3997                 1.7679
 IR Inten    --      1.8457                 0.0301                 7.9422

                     58                     59                     60
                      A                      A                      A
 Frequencies --   1007.1436              1007.3221              1018.3599
 Red. masses --      1.3916                 1.4455                 5.3556
 Frc consts  --      0.8317                 0.8642                 3.2724
 IR Inten    --      1.1707                 0.0427                 0.2623

                     61                     62                     63
                      A                      A                      A
 Frequencies --   1018.5497              1022.9358              1029.0253
 Red. masses --      5.1562                 1.3599                 1.3353
 Frc consts  --      3.1517                 0.8384                 0.8331
 IR Inten    --      0.0139                 0.2579                 0.3302

                     64                     65                     66
                      A                      A                      A
 Frequencies --   1029.0607              1035.1560              1038.6594
 Red. masses --      1.3343                 2.5338                 2.1115
 Frc consts  --      0.8325                 1.5997                 1.3421
 IR Inten    --      0.1939                12.5810                 0.0023

                     67                     68                     69
                      A                      A                      A
 Frequencies --   1047.1995              1060.4666              1064.6271
 Red. masses --      2.8855                 2.6681                 1.9683
 Frc consts  --      1.8644                 1.7679                 1.3144
 IR Inten    --      2.7180                 0.7021                 5.9116

                     70                     71                     72
                      A                      A                      A
 Frequencies --   1066.3010              1116.3708              1116.6465
 Red. masses --      2.1475                 1.4436                 1.4403
 Frc consts  --      1.4386                 1.0601                 1.0581
 IR Inten    --      0.8554                 4.8502                 9.3213

                     73                     74                     75
                      A                      A                      A
 Frequencies --   1163.0723              1168.3777              1171.5589
 Red. masses --      2.0335                 2.8308                 1.0709
 Frc consts  --      1.6207                 2.2768                 0.8660
 IR Inten    --     81.1083               233.9682                 0.0321

                     76                     77                     78
                      A                      A                      A
 Frequencies --   1171.6639              1183.9546              1193.2505
 Red. masses --      1.0922                 1.1574                 1.4505
 Frc consts  --      0.8834                 0.9559                 1.2169
 IR Inten    --      4.9986                 0.0241                49.4407

                     79                     80                     81
                      A                      A                      A
 Frequencies --   1198.7643              1199.1482              1216.9967
 Red. masses --      1.1084                 1.1133                 2.0612
 Frc consts  --      0.9385                 0.9432                 1.7986
 IR Inten    --      0.0006                 0.6264                 0.7413

                     82                     83                     84
                      A                      A                      A
 Frequencies --   1230.5498              1233.5932              1267.8358
 Red. masses --      1.7641                 1.9352                 1.7356
 Frc consts  --      1.5739                 1.7351                 1.6438
 IR Inten    --     11.4443                 0.1337                39.0100

                     85                     86                     87
                      A                      A                      A
 Frequencies --   1287.9655              1310.8953              1313.6040
 Red. masses --      1.5379                 1.5499                 1.5900
 Frc consts  --      1.5031                 1.5693                 1.6165
 IR Inten    --     13.8954                 3.4578                19.0009

                     88                     89                     90
                      A                      A                      A
 Frequencies --   1331.8543              1332.0887              1362.8985
 Red. masses --      1.5453                 1.5414                 1.2352
 Frc consts  --      1.6150                 1.6115                 1.3518
 IR Inten    --     31.2490                 2.3222                 6.8834

                     91                     92                     93
                      A                      A                      A
 Frequencies --   1369.7701              1372.8496              1375.4416
 Red. masses --      1.7342                 1.8864                 1.6097
 Frc consts  --      1.9171                 2.0947                 1.7943
 IR Inten    --      9.8478                56.9650                 6.3625

                     94                     95                     96
                      A                      A                      A
 Frequencies --   1405.8829              1406.0255              1423.6839
 Red. masses --      5.1171                 5.0355                 2.3563
 Frc consts  --      5.9589                 5.8652                 2.8139
 IR Inten    --     11.4505                 0.6956                 8.6797

                     97                     98                     99
                      A                      A                      A
 Frequencies --   1439.4707              1450.9147              1456.8774
 Red. masses --      2.0302                 1.0536                 1.0429
 Frc consts  --      2.4786                 1.3068                 1.3042
 IR Inten    --     70.0061                 6.2616                 0.1294

                    100                    101                    102
                      A                      A                      A
 Frequencies --   1467.2569              1467.4273              1474.0537
 Red. masses --      1.1420                 1.1297                 1.1484
 Frc consts  --      1.4485                 1.4332                 1.4701
 IR Inten    --      4.2508                 1.1328                 7.1348

                    103                    104                    105
                      A                      A                      A
 Frequencies --   1496.3324              1496.3914              1502.5870
 Red. masses --      2.3990                 2.3969                 1.5613
 Frc consts  --      3.1647                 3.1622                 2.0769
 IR Inten    --     10.2999                13.4193               109.1759

                    106                    107                    108
                      A                      A                      A
 Frequencies --   1541.6599              1541.6846              1670.3105
 Red. masses --      2.6225                 2.6243                 6.3105
 Frc consts  --      3.6724                 3.6750                10.3731
 IR Inten    --      0.8851                10.5496                 0.7562

                    109                    110                    111
                      A                      A                      A
 Frequencies --   1670.3688              1693.2803              1693.2977
 Red. masses --      6.3066                 6.4295                 6.4297
 Frc consts  --     10.3674                10.8614                10.8619
 IR Inten    --      1.9771                 0.1250                 0.3725

                    112                    113                    114
                      A                      A                      A
 Frequencies --   1722.0468              1747.1200              3072.6590
 Red. masses --     10.5685                10.9135                 1.0350
 Frc consts  --     18.4652                19.6273                 5.7572
 IR Inten    --     30.9513               198.0110                12.0958

                    115                    116                    117
                      A                      A                      A
 Frequencies --   3073.5939              3073.6922              3074.1936
 Red. masses --      1.0668                 1.0604                 1.0423
 Frc consts  --      5.9380                 5.9023                 5.8035
 IR Inten    --     38.2618                31.2836                 0.0169

                    118                    119                    120
                      A                      A                      A
 Frequencies --   3143.7530              3143.8713              3150.9807
 Red. masses --      1.0907                 1.0906                 1.1024
 Frc consts  --      6.3512                 6.3511                 6.4487
 IR Inten    --     35.6181                 0.0200                19.9169

                    121                    122                    123
                      A                      A                      A
 Frequencies --   3150.9947              3174.6555              3175.3944
 Red. masses --      1.1024                 1.1048                 1.1044
 Frc consts  --      6.4489                 6.5604                 6.5610
 IR Inten    --      8.3952                 6.2382                10.0911

                    124                    125                    126
                      A                      A                      A
 Frequencies --   3184.3880              3184.4040              3191.7809
 Red. masses --      1.0912                 1.0912                 1.1059
 Frc consts  --      6.5194                 6.5195                 6.6379
 IR Inten    --      1.0719                 0.3710                 0.0435

                    127                    128                    129
                      A                      A                      A
 Frequencies --   3193.4165              3197.0877              3197.1454
 Red. masses --      1.1052                 1.0887                 1.0887
 Frc consts  --      6.6405                 6.5563                 6.5566
 IR Inten    --     13.6184                 2.3551                 2.3534

                    130                    131                    132
                      A                      A                      A
 Frequencies --   3208.2051              3208.2367              3219.7372
 Red. masses --      1.0903                 1.0903                 1.0956
 Frc consts  --      6.6119                 6.6120                 6.6919
 IR Inten    --      1.9746                 1.9626                11.2680

                    133                    134                    135
                      A                      A                      A
 Frequencies --   3219.7600              3228.9612              3229.0031
 Red. masses --      1.0956                 1.1006                 1.1006
 Frc consts  --      6.6920                 6.7607                 6.7609
 IR Inten    --     11.5650                14.7625                 6.2881

 - Thermochemistry -
 -------------------
 Temperature   298.150 Kelvin.  Pressure   1.00000 Atm.
 Atom     1 has atomic number  6 and mass  12.00000

 Molecular mass:   334.16813 amu.
 Principal axes and moments of inertia in atomic units:
                           1         2         3
     Eigenvalues --  2849.11698********************
           X            1.00000   0.00265  -0.00000
           Y           -0.00265   1.00000  -0.00001
           Z            0.00000   0.00001   1.00000
 This molecule is an asymmetric top.
 Rotational symmetry number  1.
 Warning -- assumption of classical behavior for rotation
           may cause significant error
 Rotational temperatures (Kelvin)      0.03040     0.00473     0.00464
 Rotational constants (GHZ):           0.63344     0.09857     0.09673
    2 imaginary frequencies ignored.
 Zero-point vibrational energy    1032422.3 (Joules/Mol)
                                  246.75485 (Kcal/Mol)
 Warning -- explicit consideration of  30 degrees of freedom as
           vibrations may cause significant error
 Vibrational temperatures:     35.23    36.67    64.34    67.23   129.88
          (Kelvin)            144.46   181.87   205.93   226.07   310.22
                              338.96   346.11   368.60   380.70   402.64
                              446.64   450.56   466.83   507.54   523.09
                              539.58   573.68   596.62   603.12   605.99
                              771.67   780.48   855.44   859.64   865.30
                              906.49   906.59  1041.89  1042.00  1057.93
                             1078.49  1091.50  1119.95  1128.47  1134.44
                             1134.91  1202.08  1210.63  1250.18  1250.21
                             1325.44  1348.49  1350.35  1376.34  1390.19
                             1394.30  1433.33  1436.39  1437.33  1446.08
                             1449.06  1449.31  1465.19  1465.47  1471.78
                             1480.54  1480.59  1489.36  1494.40  1506.69
                             1525.77  1531.76  1534.17  1606.21  1606.61
                             1673.40  1681.03  1685.61  1685.76  1703.45
                             1716.82  1724.75  1725.31  1750.99  1770.49
                             1774.87  1824.13  1853.10  1886.09  1889.98
                             1916.24  1916.58  1960.91  1970.79  1975.22
                             1978.95  2022.75  2022.96  2048.36  2071.08
                             2087.54  2096.12  2111.06  2111.30  2120.83
                             2152.89  2152.97  2161.89  2218.10  2218.14
                             2403.20  2403.29  2436.25  2436.28  2477.64
                             2513.72  4420.87  4422.22  4422.36  4423.08
                             4523.16  4523.33  4533.56  4533.58  4567.62
                             4568.68  4581.62  4581.65  4592.26  4594.61
                             4599.90  4599.98  4615.89  4615.94  4632.48
                             4632.52  4645.75  4645.82

 Zero-point correction=                           0.393229 (Hartree/Particle)
 Thermal correction to Energy=                    0.412857
 Thermal correction to Enthalpy=                  0.413801
 Thermal correction to Gibbs Free Energy=         0.343877
 Sum of electronic and zero-point Energies=          -1071.058562
 Sum of electronic and thermal Energies=             -1071.038933
 Sum of electronic and thermal Enthalpies=           -1071.037989
 Sum of electronic and thermal Free Energies=        -1071.107913

                     E (Thermal)             CV                S
                      KCal/Mol        Cal/Mol-Kelvin    Cal/Mol-Kelvin
 Total                  259.072             79.730            147.168
 Electronic               0.000              0.000              0.000
 Translational            0.889              2.981             43.314
 Rotational               0.889              2.981             35.230
 Vibrational            257.294             73.768             68.623
 Vibration     1          0.593              1.985              6.232
 Vibration     2          0.593              1.985              6.153
 Vibration     3          0.595              1.980              5.038
 Vibration     4          0.595              1.979              4.951
 Vibration     5          0.602              1.956              3.654
 Vibration     6          0.604              1.949              3.446
 Vibration     7          0.611              1.927              3.000
 Vibration     8          0.616              1.910              2.762
 Vibration     9          0.621              1.895              2.584
 Vibration    10          0.645              1.817              1.996
 Vibration    11          0.655              1.786              1.836
 Vibration    12          0.658              1.778              1.799
 Vibration    13          0.666              1.752              1.688
 Vibration    14          0.671              1.738              1.631
 Vibration    15          0.680              1.711              1.535
 Vibration    16          0.699              1.654              1.360
 Vibration    17          0.701              1.649              1.346
 Vibration    18          0.709              1.627              1.288
 Vibration    19          0.729              1.570              1.154
 Vibration    20          0.737              1.547              1.107
 Vibration    21          0.746              1.523              1.059
 Vibration    22          0.765              1.473              0.967
 Vibration    23          0.778              1.438              0.910
 Vibration    24          0.782              1.429              0.895
 Vibration    25          0.784              1.424              0.888
 Vibration    26          0.891              1.170              0.573
 Vibration    27          0.898              1.156              0.560
 Vibration    28          0.952              1.043              0.459
 Vibration    29          0.955              1.037              0.454
 Vibration    30          0.960              1.029              0.447

 Normal termination of Gaussian 16 at Thu Nov  3 08:43:56 2022.
