 Gaussian 16, Revision A.03,
 Gaussian 16:  ES64L-G16RevA.03 25-Dec-2016

 ----------------------------------------------------------------------
 #p pop=(regular,nbo,savenbos) freq=noraman def2svp empiricaldispersion
 =gd3bj output=wfx pbe1pbe
 ----------------------------------------------------------------------

 --------
 03_lig_b
 --------
 Symbolic Z-matrix:
 Charge =  0 Multiplicity = 1

                         Standard orientation:
 ---------------------------------------------------------------------
 Center     Atomic      Atomic             Coordinates (Angstroms)
 Number     Number       Type             X           Y           Z
 ---------------------------------------------------------------------
      1          6           0        3.762050   -2.113296   -1.114322
      2          6           0        2.899492   -1.804278    0.096361
      3          1           0        2.506585   -2.745251    0.507918
      4          6           0        3.582716   -0.924318    1.156875
      5          8           0        2.987804    0.376409    0.971255
      6          6           0        1.926690    0.200557    0.189075
      7          7           0        1.757317   -0.969657   -0.291666
      8          7           0       -0.854272   -0.043899   -0.560299
      9          6           0       -0.359528    1.073948   -0.200174
     10          6           0        1.103857    1.427996   -0.120378
     11          6           0        1.345097    2.525554    0.916803
     12          6           0        1.504117    1.905316   -1.538266
     13          8           0       -1.212813    2.068120    0.016927
     14          6           0       -2.534790    1.553320   -0.233900
     15          6           0       -2.306565    0.090590   -0.667093
     16          1           0       -2.543993   -0.050787   -1.734753
     17          6           0       -3.068541   -0.981561    0.139598
     18          6           0       -4.566171   -0.716995   -0.031510
     19          6           0       -2.736078   -2.363122   -0.429146
     20          6           0       -2.681586   -0.934153    1.617470
     21          1           0        4.140053   -1.187449   -1.576488
     22          1           0        3.162412   -2.671012   -1.847002
     23          1           0        4.620893   -2.735291   -0.819675
     24          1           0        4.667634   -0.825802    1.019258
     25          1           0        3.372894   -1.240172    2.190165
     26          1           0        1.071616    2.191734    1.927633
     27          1           0        0.742505    3.407433    0.667837
     28          1           0        2.406188    2.804109    0.924244
     29          1           0        1.235847    1.149672   -2.292027
     30          1           0        2.585864    2.097822   -1.577882
     31          1           0        0.972367    2.838366   -1.772558
     32          1           0       -2.995619    2.175156   -1.012654
     33          1           0       -3.113056    1.655232    0.695140
     34          1           0       -4.853901   -0.754339   -1.094025
     35          1           0       -4.868161    0.263639    0.370864
     36          1           0       -5.151884   -1.481735    0.500647
     37          1           0       -2.868980   -2.395749   -1.520894
     38          1           0       -3.387492   -3.125860    0.024892
     39          1           0       -1.697750   -2.667206   -0.222042
     40          1           0       -2.936298    0.027002    2.092967
     41          1           0       -1.601562   -1.106539    1.744296
     42          1           0       -3.211955   -1.721656    2.174079
 ---------------------------------------------------------------------

 SCF Done:  E(RPBE1PBE) =  -806.399585960     A.U. after   14 cycles

 The electronic state is 1-A.
 Alpha  occ. eigenvalues --  -19.24316 -19.24305 -14.34821 -14.34807 -10.30932
 Alpha  occ. eigenvalues --  -10.30880 -10.28622 -10.28471 -10.26843 -10.25946
 Alpha  occ. eigenvalues --  -10.25554 -10.24068 -10.23400 -10.22567 -10.22439
 Alpha  occ. eigenvalues --  -10.22280 -10.21586 -10.21008  -1.11742  -1.11512
 Alpha  occ. eigenvalues --   -0.91437  -0.90370  -0.85893  -0.82771  -0.78558
 Alpha  occ. eigenvalues --   -0.75406  -0.71441  -0.70175  -0.69517  -0.68913
 Alpha  occ. eigenvalues --   -0.65531  -0.64159  -0.60946  -0.59647  -0.55270
 Alpha  occ. eigenvalues --   -0.54162  -0.52301  -0.51429  -0.50882  -0.48875
 Alpha  occ. eigenvalues --   -0.47039  -0.46344  -0.45642  -0.44771  -0.44609
 Alpha  occ. eigenvalues --   -0.44186  -0.43189  -0.41796  -0.41336  -0.40373
 Alpha  occ. eigenvalues --   -0.39981  -0.39116  -0.38944  -0.38065  -0.37520
 Alpha  occ. eigenvalues --   -0.37022  -0.36701  -0.36453  -0.36284  -0.35371
 Alpha  occ. eigenvalues --   -0.34887  -0.34469  -0.33723  -0.33250  -0.32507
 Alpha  occ. eigenvalues --   -0.27946  -0.25003  -0.24218  -0.23889
 Alpha virt. eigenvalues --    0.02591   0.04132   0.05957   0.07013   0.08440
 Alpha virt. eigenvalues --    0.09488   0.09854   0.10153   0.11139   0.11765
 Alpha virt. eigenvalues --    0.12337   0.12778   0.13373   0.13663   0.14145

 Mulliken charges:
               1
     1  C   -0.002892
     2  C   -0.119455
     3  H    0.043404
     4  C    0.225924
     5  O   -0.339369
     6  C    0.182013
     7  N   -0.218696
     8  N   -0.196179
     9  C    0.176733
    10  C   -0.366904
    11  C    0.063466
    12  C    0.031259
    13  O   -0.344782
    14  C    0.249322
    15  C   -0.023168
    16  H    0.032308
    17  C   -0.378891
    18  C    0.020769
    19  C    0.032190
    20  C    0.003284
    21  H    0.035460
    22  H    0.059379
    23  H    0.037699
    24  H    0.037767
    25  H    0.046815
    26  H    0.042515
    27  H    0.051624
    28  H    0.047680
    29  H    0.067669
    30  H    0.047143
    31  H    0.047057
    32  H    0.043890
    33  H    0.043662
    34  H    0.033444
    35  H    0.026693
    36  H    0.037242
    37  H    0.026696
    38  H    0.024694
    39  H    0.059140
    40  H    0.023919
    41  H    0.056326
    42  H    0.033148
 Sum of Mulliken charges =  -0.00000

 Dipole moment (field-independent basis, Debye):
    X=              0.3062    Y=              0.4108    Z=              0.4941  Tot=              0.7118
 Quadrupole moment (field-independent basis, Debye-Ang):
   XX=            -97.9825   YY=           -109.0968   ZZ=           -109.3558
   XY=             -4.6617   XZ=              1.7466   YZ=             -4.4231

  Exact polarizability: 183.294  -0.811 167.523   2.724   2.281 139.869
 Approx polarizability: 221.999   4.135 241.331   7.313  11.757 203.568

 Summary of Natural Population Analysis:

                                       Natural Population
                Natural  -----------------------------------------------
    Atom  No    Charge         Core      Valence    Rydberg      Total
 -----------------------------------------------------------------------
      C    1   -0.65645      1.99921     4.64647    0.01078     6.65645
      C    2   -0.08675      1.99903     4.06742    0.02030     6.08675
      H    3    0.23562      0.00000     0.76069    0.00370     0.76438
      C    4   -0.08428      1.99903     4.06585    0.01940     6.08428
      O    5   -0.57141      1.99965     6.56102    0.01075     8.57141
      C    6    0.62169      1.99900     3.32850    0.05082     5.37831
      N    7   -0.54420      1.99926     5.52794    0.01700     7.54420
      N    8   -0.54644      1.99926     5.53028    0.01690     7.54644
      C    9    0.62846      1.99898     3.32250    0.05007     5.37154
      C   10   -0.17042      1.99880     4.15394    0.01769     6.17042
      C   11   -0.64818      1.99926     4.63489    0.01404     6.64818
      C   12   -0.62444      1.99923     4.61345    0.01176     6.62444
      O   13   -0.57044      1.99964     6.55987    0.01093     8.57044
      C   14   -0.08235      1.99904     4.06431    0.01900     6.08235
      C   15   -0.08673      1.99895     4.06039    0.02739     6.08673
      H   16    0.23859      0.00000     0.75752    0.00390     0.76141
      C   17   -0.08092      1.99886     4.06584    0.01622     6.08092
      C   18   -0.65093      1.99918     4.63838    0.01337     6.65093
      C   19   -0.64863      1.99919     4.63493    0.01452     6.64863
      C   20   -0.65889      1.99918     4.64561    0.01410     6.65889
      H   21    0.22070      0.00000     0.77656    0.00274     0.77930
      H   22    0.23820      0.00000     0.75864    0.00316     0.76180
      H   23    0.21954      0.00000     0.77773    0.00274     0.78046
      H   24    0.21056      0.00000     0.78647    0.00297     0.78944
      H   25    0.20897      0.00000     0.78782    0.00321     0.79103
      H   26    0.23485      0.00000     0.76270    0.00245     0.76515
      H   27    0.24026      0.00000     0.75713    0.00261     0.75974
      H   28    0.23877      0.00000     0.75861    0.00262     0.76123
      H   29    0.24737      0.00000     0.74959    0.00304     0.75263
      H   30    0.22958      0.00000     0.76789    0.00253     0.77042
      H   31    0.22928      0.00000     0.76797    0.00275     0.77072
      H   32    0.21517      0.00000     0.78209    0.00273     0.78483
      H   33    0.20681      0.00000     0.79011    0.00308     0.79319
      H   34    0.22454      0.00000     0.77282    0.00264     0.77546
      H   35    0.21885      0.00000     0.77867    0.00248     0.78115
      H   36    0.22988      0.00000     0.76757    0.00255     0.77012
      H   37    0.22293      0.00000     0.77458    0.00248     0.77707
      H   38    0.21901      0.00000     0.77846    0.00253     0.78099
      H   39    0.24636      0.00000     0.75079    0.00285     0.75364
      H   40    0.21717      0.00000     0.78053    0.00230     0.78283
      H   41    0.24048      0.00000     0.75629    0.00324     0.75952
      H   42    0.22784      0.00000     0.76971    0.00245     0.77216
 =======================================================================
   * Total *   -0.00000     35.98472   101.59249    0.42279   138.00000

 ******    2 imaginary frequencies (negative Signs) ******

                      1                      2                      3
                      A                      A                      A
 Frequencies --   -113.5760               -82.7781                29.7010
 Red. masses --      6.4958                 5.6802                 3.0714
 Frc consts  --      0.0494                 0.0229                 0.0016
 IR Inten    --      0.9200                 0.6655                 0.0119

                      4                      5                      6
                      A                      A                      A
 Frequencies --     58.2820                67.5120                86.4226
 Red. masses --      2.8587                 2.7797                 3.7896
 Frc consts  --      0.0057                 0.0075                 0.0167
 IR Inten    --      0.1571                 0.0728                 0.2140

                      7                      8                      9
                      A                      A                      A
 Frequencies --    131.2958               147.2121               170.8859
 Red. masses --      3.1242                 2.7569                 2.8726
 Frc consts  --      0.0317                 0.0352                 0.0494
 IR Inten    --      1.7662                 1.1592                 0.9984

                     10                     11                     12
                      A                      A                      A
 Frequencies --    200.4147               222.1501               240.2381
 Red. masses --      1.1179                 1.4081                 2.1793
 Frc consts  --      0.0265                 0.0409                 0.0741
 IR Inten    --      0.1486                 0.1259                 0.3807

                     13                     14                     15
                      A                      A                      A
 Frequencies --    242.8869               255.9650               263.2243
 Red. masses --      1.2090                 1.3018                 1.3818
 Frc consts  --      0.0420                 0.0503                 0.0564
 IR Inten    --      0.0614                 0.4428                 0.6511

                     16                     17                     18
                      A                      A                      A
 Frequencies --    269.7426               276.2480               284.1551
 Red. masses --      1.2524                 1.7350                 1.4681
 Frc consts  --      0.0537                 0.0780                 0.0698
 IR Inten    --      0.0863                 0.8785                 1.1240

                     19                     20                     21
                      A                      A                      A
 Frequencies --    293.7800               316.1074               324.5501
 Red. masses --      1.6600                 3.2414                 2.7106
 Frc consts  --      0.0844                 0.1908                 0.1682
 IR Inten    --      0.0437                 0.8689                 4.6273

                     22                     23                     24
                      A                      A                      A
 Frequencies --    346.3359               356.4574               380.7858
 Red. masses --      2.4981                 2.3316                 2.6826
 Frc consts  --      0.1765                 0.1745                 0.2292
 IR Inten    --      1.0134                 0.0365                 1.6312

                     25                     26                     27
                      A                      A                      A
 Frequencies --    396.2246               404.9828               473.1836
 Red. masses --      2.6588                 3.1508                 2.9740
 Frc consts  --      0.2459                 0.3045                 0.3923
 IR Inten    --      0.8721                 3.6657                 0.4534

                     28                     29                     30
                      A                      A                      A
 Frequencies --    488.3514               531.1629               606.8885
 Red. masses --      3.1630                 2.9342                 4.1308
 Frc consts  --      0.4444                 0.4877                 0.8964
 IR Inten    --      7.6987                 4.9556                12.2085

                     31                     32                     33
                      A                      A                      A
 Frequencies --    692.5966               733.5623               747.7579
 Red. masses --      3.6970                 4.9426                 2.8848
 Frc consts  --      1.0449                 1.5670                 0.9503
 IR Inten    --      1.7110                 2.5773                 1.9885

                     34                     35                     36
                      A                      A                      A
 Frequencies --    770.3300               779.7842               798.9608
 Red. masses --      3.2465                 5.2501                 4.0539
 Frc consts  --      1.1351                 1.8809                 1.5247
 IR Inten    --      1.4626                 3.5037                 1.6344

                     37                     38                     39
                      A                      A                      A
 Frequencies --    862.7697               884.7431               909.6720
 Red. masses --      2.7315                 2.2459                 2.7029
 Frc consts  --      1.1979                 1.0358                 1.3178
 IR Inten    --      2.3008                 4.5852                 1.9297

                     40                     41                     42
                      A                      A                      A
 Frequencies --    935.2968               942.9530               946.3657
 Red. masses --      1.4190                 1.3398                 1.6093
 Frc consts  --      0.7313                 0.7019                 0.8492
 IR Inten    --      3.0033                 1.7684                 1.8368

                     43                     44                     45
                      A                      A                      A
 Frequencies --    948.6655               952.9845               961.4085
 Red. masses --      1.6658                 1.4305                 1.8215
 Frc consts  --      0.8833                 0.7654                 0.9920
 IR Inten    --      1.0653                 1.2021                 1.4932

                     46                     47                     48
                      A                      A                      A
 Frequencies --    986.0410               991.1133              1005.0050
 Red. masses --      3.0351                 1.7444                 3.1535
 Frc consts  --      1.7387                 1.0096                 1.8766
 IR Inten    --     37.4140                11.9898                35.7780

                     49                     50                     51
                      A                      A                      A
 Frequencies --   1018.7255              1021.2133              1023.2973
 Red. masses --      1.9048                 1.7229                 2.4647
 Frc consts  --      1.1647                 1.0586                 1.5206
 IR Inten    --      9.3101                 6.1546                16.2901

                     52                     53                     54
                      A                      A                      A
 Frequencies --   1034.3710              1055.4974              1079.6421
 Red. masses --      4.8938                 1.6127                 2.1759
 Frc consts  --      3.0850                 1.0586                 1.4943
 IR Inten    --     12.9076                 1.9982                 3.5139

                     55                     56                     57
                      A                      A                      A
 Frequencies --   1089.4231              1102.0546              1121.3027
 Red. masses --      3.0768                 2.0136                 1.7728
 Frc consts  --      2.1515                 1.4409                 1.3133
 IR Inten    --     16.3885                 9.9073                 3.2104

                     58                     59                     60
                      A                      A                      A
 Frequencies --   1163.8310              1176.7550              1180.5059
 Red. masses --      1.9493                 3.1568                 2.9053
 Frc consts  --      1.5557                 2.5755                 2.3855
 IR Inten    --      0.8282                14.8704               224.5115

                     61                     62                     63
                      A                      A                      A
 Frequencies --   1214.6704              1227.6807              1230.8975
 Red. masses --      1.3476                 1.5283                 1.4493
 Frc consts  --      1.1715                 1.3572                 1.2938
 IR Inten    --      3.0742                16.7918                 9.3168

                     64                     65                     66
                      A                      A                      A
 Frequencies --   1243.9937              1252.3077              1268.3508
 Red. masses --      2.0248                 2.1329                 1.5832
 Frc consts  --      1.8462                 1.9708                 1.5006
 IR Inten    --      6.0252                 1.9732                29.2693

                     67                     68                     69
                      A                      A                      A
 Frequencies --   1284.2525              1287.5456              1315.3700
 Red. masses --      1.7064                 2.5567                 1.5511
 Frc consts  --      1.6582                 2.4972                 1.5812
 IR Inten    --     11.7208                 9.1457                 8.5913

                     70                     71                     72
                      A                      A                      A
 Frequencies --   1328.6421              1358.6513              1364.2342
 Red. masses --      1.4473                 1.4409                 1.3127
 Frc consts  --      1.5053                 1.5672                 1.4394
 IR Inten    --      0.6457                 5.8420                14.5588

                     73                     74                     75
                      A                      A                      A
 Frequencies --   1366.6305              1379.2666              1384.9558
 Red. masses --      1.5872                 1.3552                 1.5271
 Frc consts  --      1.7466                 1.5190                 1.7259
 IR Inten    --      5.7080                13.9752                17.8852

                     76                     77                     78
                      A                      A                      A
 Frequencies --   1386.7279              1391.0070              1406.5922
 Red. masses --      1.4729                 1.3468                 1.2611
 Frc consts  --      1.6688                 1.5354                 1.4701
 IR Inten    --      5.5300                15.4661                15.5716

                     79                     80                     81
                      A                      A                      A
 Frequencies --   1431.6669              1434.5029              1443.9770
 Red. masses --      1.9156                 1.8588                 1.0672
 Frc consts  --      2.3133                 2.2536                 1.3111
 IR Inten    --     19.3656                47.7594                 3.4383

                     82                     83                     84
                      A                      A                      A
 Frequencies --   1449.8638              1454.6822              1456.1759
 Red. masses --      1.0602                 1.0449                 1.0582
 Frc consts  --      1.3130                 1.3027                 1.3220
 IR Inten    --      3.4831                 0.4853                 0.7929

                     85                     86                     87
                      A                      A                      A
 Frequencies --   1459.3094              1459.6043              1462.0970
 Red. masses --      1.0592                 1.0497                 1.0475
 Frc consts  --      1.3289                 1.3176                 1.3193
 IR Inten    --      4.9395                 3.3675                 5.8776

                     88                     89                     90
                      A                      A                      A
 Frequencies --   1468.6244              1472.9547              1478.4221
 Red. masses --      1.0745                 1.1138                 1.0802
 Frc consts  --      1.3655                 1.4237                 1.3910
 IR Inten    --      4.3318                 6.3979                 4.4057

                     91                     92                     93
                      A                      A                      A
 Frequencies --   1485.2272              1493.0559              1495.3935
 Red. masses --      1.1106                 1.1346                 1.1785
 Frc consts  --      1.4434                 1.4903                 1.5527
 IR Inten    --      2.5686                18.8988                14.8662

                     94                     95                     96
                      A                      A                      A
 Frequencies --   1504.1927              1728.9926              1761.3146
 Red. masses --      1.5297                10.9404                11.2101
 Frc consts  --      2.0392                19.2695                20.4897
 IR Inten    --     93.7420                39.5135               267.4443

                     97                     98                     99
                      A                      A                      A
 Frequencies --   3046.0153              3049.7324              3054.0747
 Red. masses --      1.0368                 1.0375                 1.0359
 Frc consts  --      5.6675                 5.6853                 5.6929
 IR Inten    --     20.5715                24.8719                16.8643

                    100                    101                    102
                      A                      A                      A
 Frequencies --   3055.4082              3060.4602              3064.7302
 Red. masses --      1.0395                 1.0341                 1.0855
 Frc consts  --      5.7175                 5.7066                 6.0073
 IR Inten    --     14.1990                14.0216                26.2119

                    103                    104                    105
                      A                      A                      A
 Frequencies --   3082.9114              3086.8947              3099.7269
 Red. masses --      1.0366                 1.0632                 1.0600
 Frc consts  --      5.8049                 5.9693                 6.0006
 IR Inten    --     11.9696                30.1685                31.0901

                    106                    107                    108
                      A                      A                      A
 Frequencies --   3109.0533              3137.4691              3139.3738
 Red. masses --      1.0873                 1.1031                 1.1022
 Frc consts  --      6.1922                 6.3974                 6.4005
 IR Inten    --     19.2622                 6.0825                37.2585

                    109                    110                    111
                      A                      A                      A
 Frequencies --   3143.8175              3147.4045              3152.8938
 Red. masses --      1.1030                 1.1032                 1.1034
 Frc consts  --      6.4229                 6.4389                 6.4625
 IR Inten    --      8.6568                17.1626                15.7409

                    112                    113                    114
                      A                      A                      A
 Frequencies --   3153.3669              3153.9002              3162.6063
 Red. masses --      1.1036                 1.1043                 1.1106
 Frc consts  --      6.4658                 6.4720                 6.5446
 IR Inten    --     23.5548                29.4857                16.0570

                    115                    116                    117
                      A                      A                      A
 Frequencies --   3165.3267              3168.5224              3171.2487
 Red. masses --      1.1120                 1.1048                 1.1066
 Frc consts  --      6.5643                 6.5353                 6.5568
 IR Inten    --     18.9773                11.5720                 7.0023

                    118                    119                    120
                      A                      A                      A
 Frequencies --   3175.9838              3181.4646              3197.7281
 Red. masses --      1.1048                 1.1040                 1.1054
 Frc consts  --      6.5658                 6.5838                 6.6596
 IR Inten    --     10.0059                10.4499                 8.1447

 - Thermochemistry -
 -------------------
 Temperature   298.150 Kelvin.  Pressure   1.00000 Atm.
 Atom     1 has atomic number  6 and mass  12.00000

 Molecular mass:   252.18378 amu.
 Principal axes and moments of inertia in atomic units:
                           1         2         3
     Eigenvalues --  2685.906786658.159938053.91873
           X            0.99994   0.00729  -0.00767
           Y           -0.00730   0.99997  -0.00020
           Z            0.00766   0.00025   0.99997
 This molecule is an asymmetric top.
 Rotational symmetry number  1.
 Warning -- assumption of classical behavior for rotation
           may cause significant error
 Rotational temperatures (Kelvin)      0.03225     0.01301     0.01075
 Rotational constants (GHZ):           0.67193     0.27106     0.22408
    2 imaginary frequencies ignored.
 Zero-point vibrational energy     971210.5 (Joules/Mol)
                                  232.12489 (Kcal/Mol)
 Warning -- explicit consideration of  28 degrees of freedom as
           vibrations may cause significant error
 Vibrational temperatures:     42.73    83.85    97.13   124.34   188.91
          (Kelvin)            211.81   245.87   288.35   319.62   345.65
                              349.46   368.28   378.72   388.10   397.46
                              408.84   422.68   454.81   466.96   498.30
                              512.86   547.87   570.08   582.68   680.81
                              702.63   764.22   873.18   996.49  1055.43
                             1075.86  1108.33  1121.94  1149.53  1241.33
                             1272.95  1308.82  1345.68  1356.70  1361.61
                             1364.92  1371.13  1383.25  1418.69  1425.99
                             1445.98  1465.72  1469.30  1472.30  1488.23
                             1518.63  1553.36  1567.44  1585.61  1613.30
                             1674.49  1693.09  1698.48  1747.64  1766.36
                             1770.99  1789.83  1801.79  1824.87  1847.75
                             1852.49  1892.52  1911.62  1954.80  1962.83
                             1966.28  1984.46  1992.64  1995.19  2001.35
                             2023.77  2059.85  2063.93  2077.56  2086.03
                             2092.96  2095.11  2099.62  2100.05  2103.63
                             2113.02  2119.25  2127.12  2136.91  2148.17
                             2151.54  2164.20  2487.63  2534.14  4382.54
                             4387.88  4394.13  4396.05  4403.32  4409.46
                             4435.62  4441.35  4459.82  4473.23  4514.12
                             4516.86  4523.25  4528.41  4536.31  4536.99
                             4537.76  4550.29  4554.20  4558.80  4562.72
                             4569.53  4577.42  4600.82

 Zero-point correction=                           0.369915 (Hartree/Particle)
 Thermal correction to Energy=                    0.387761
 Thermal correction to Enthalpy=                  0.388705
 Thermal correction to Gibbs Free Energy=         0.325008
 Sum of electronic and zero-point Energies=           -806.029671
 Sum of electronic and thermal Energies=              -806.011825
 Sum of electronic and thermal Enthalpies=            -806.010881
 Sum of electronic and thermal Free Energies=         -806.074578

                     E (Thermal)             CV                S
                      KCal/Mol        Cal/Mol-Kelvin    Cal/Mol-Kelvin
 Total                  243.324             69.974            134.062
 Electronic               0.000              0.000              0.000
 Translational            0.889              2.981             42.475
 Rotational               0.889              2.981             33.332
 Vibrational            241.546             64.012             58.255
 Vibration     1          0.593              1.984              5.849
 Vibration     2          0.596              1.974              4.515
 Vibration     3          0.598              1.970              4.225
 Vibration     4          0.601              1.959              3.739
 Vibration     5          0.612              1.922              2.927
 Vibration     6          0.617              1.906              2.708
 Vibration     7          0.626              1.878              2.426
 Vibration     8          0.638              1.839              2.129
 Vibration     9          0.648              1.807              1.941
 Vibration    10          0.657              1.779              1.801
 Vibration    11          0.659              1.775              1.782
 Vibration    12          0.666              1.753              1.689
 Vibration    13          0.670              1.740              1.640
 Vibration    14          0.674              1.729              1.598
 Vibration    15          0.678              1.717              1.557
 Vibration    16          0.683              1.703              1.509
 Vibration    17          0.689              1.685              1.452
 Vibration    18          0.703              1.643              1.330
 Vibration    19          0.709              1.626              1.287
 Vibration    20          0.724              1.583              1.183
 Vibration    21          0.732              1.562              1.138
 Vibration    22          0.751              1.511              1.036
 Vibration    23          0.763              1.478              0.977
 Vibration    24          0.770              1.459              0.945
 Vibration    25          0.830              1.310              0.729
 Vibration    26          0.844              1.276              0.688
 Vibration    27          0.886              1.181              0.585
 Vibration    28          0.966              1.017              0.438

 Normal termination of Gaussian 16 at Thu Nov  3 08:26:44 2022.
