 Gaussian 16, Revision A.03,
 Gaussian 16:  ES64L-G16RevA.03 25-Dec-2016

 ----------------------------------------------------------------------
 #p pop=(regular,nbo,savenbos) freq=noraman def2svp empiricaldispersion
 =gd3bj output=wfx pbe1pbe
 ----------------------------------------------------------------------

 --------
 05_lig_b
 --------
 Symbolic Z-matrix:
 Charge =  0 Multiplicity = 1

                         Standard orientation:
 ---------------------------------------------------------------------
 Center     Atomic      Atomic             Coordinates (Angstroms)
 Number     Number       Type             X           Y           Z
 ---------------------------------------------------------------------
      1          6           0        1.091634    2.930621   -0.463554
      2          6           0        0.404875    1.766431    0.272757
      3          6           0        1.457976    0.753407    0.633386
      4          7           0        1.546364   -0.476737    0.306785
      5          6           0        2.826743   -0.997285    0.799210
      6          1           0        2.608196   -1.931212    1.338932
      7          6           0        3.280363    0.125241    1.743326
      8          8           0        2.440282    1.240664    1.389762
      9          6           0        3.796939   -1.321236   -0.364168
     10          6           0        4.133883   -0.064474   -1.168144
     11          6           0        5.067435   -1.916597    0.247012
     12          6           0        3.159009   -2.358283   -1.291625
     13          7           0       -0.949244   -0.026985   -0.843835
     14          6           0       -0.686520    1.194982   -0.588936
     15          8           0       -1.538606    2.099258   -1.076347
     16          6           0       -2.453511    1.380266   -1.927258
     17          6           0       -2.262265   -0.081137   -1.516694
     18          1           0       -2.162748   -0.758267   -2.376233
     19          6           0       -3.271873   -0.638971   -0.536628
     20          6           0       -3.479238   -2.021370   -0.485612
     21          6           0       -4.347640   -2.564618    0.458796
     22          6           0       -5.015101   -1.736994    1.359829
     23          6           0       -4.805308   -0.359248    1.320248
     24          6           0       -3.934281    0.186108    0.379655
     25          6           0       -0.262805    2.267270    1.571031
     26          1           0        1.567465    2.583349   -1.392418
     27          1           0        1.863250    3.371910    0.179972
     28          1           0        0.348230    3.697100   -0.716845
     29          1           0        4.325029    0.434509    1.616094
     30          1           0        3.097996   -0.106410    2.803383
     31          1           0        4.818533   -0.315979   -1.992332
     32          1           0        4.625552    0.712576   -0.561142
     33          1           0        3.227852    0.369175   -1.619561
     34          1           0        5.781498   -2.184185   -0.546474
     35          1           0        4.838017   -2.831736    0.814738
     36          1           0        5.580156   -1.213713    0.923387
     37          1           0        3.895213   -2.697256   -2.036938
     38          1           0        2.300941   -1.950253   -1.848437
     39          1           0        2.791772   -3.231952   -0.733570
     40          1           0       -2.153739    1.565139   -2.969855
     41          1           0       -3.464371    1.770840   -1.761928
     42          1           0       -2.926433   -2.667554   -1.173742
     43          1           0       -4.496676   -3.646163    0.492574
     44          1           0       -5.696027   -2.165834    2.098890
     45          1           0       -5.320689    0.295199    2.027406
     46          1           0       -3.770335    1.267556    0.371616
     47          1           0        0.499986    2.692620    2.236385
     48          1           0       -0.769811    1.441148    2.090881
     49          1           0       -1.003995    3.041381    1.331455
 ---------------------------------------------------------------------

 SCF Done:  E(RPBE1PBE) =  -997.787778030     A.U. after   14 cycles

 The electronic state is 1-A.
 Alpha  occ. eigenvalues --  -19.24594 -19.24165 -14.35486 -14.35004 -10.31158
 Alpha  occ. eigenvalues --  -10.30952 -10.29063 -10.28458 -10.27055 -10.26616
 Alpha  occ. eigenvalues --  -10.25556 -10.24254 -10.24171 -10.23769 -10.23713
 Alpha  occ. eigenvalues --  -10.23645 -10.23588 -10.23479 -10.23297 -10.23127
 Alpha  occ. eigenvalues --  -10.22286 -10.21797 -10.21046  -1.11929  -1.11513
 Alpha  occ. eigenvalues --   -0.91626  -0.90680  -0.87415  -0.85881  -0.82832
 Alpha  occ. eigenvalues --   -0.79176  -0.76064  -0.75849  -0.74162  -0.70667
 Alpha  occ. eigenvalues --   -0.69611  -0.68943  -0.66296  -0.65290  -0.64038
 Alpha  occ. eigenvalues --   -0.61983  -0.60063  -0.59238  -0.55483  -0.54434
 Alpha  occ. eigenvalues --   -0.53516  -0.52053  -0.51132  -0.50601  -0.48919
 Alpha  occ. eigenvalues --   -0.47379  -0.46720  -0.46496  -0.45692  -0.45120
 Alpha  occ. eigenvalues --   -0.44829  -0.44309  -0.43985  -0.43524  -0.43009
 Alpha  occ. eigenvalues --   -0.42069  -0.41634  -0.40767  -0.39210  -0.38987
 Alpha  occ. eigenvalues --   -0.38197  -0.37824  -0.37567  -0.37139  -0.36658
 Alpha  occ. eigenvalues --   -0.36576  -0.36351  -0.35867  -0.35332  -0.34783
 Alpha  occ. eigenvalues --   -0.34513  -0.34100  -0.33276  -0.32729  -0.28232
 Alpha  occ. eigenvalues --   -0.26497  -0.26222  -0.25194  -0.24502  -0.24028
 Alpha virt. eigenvalues --   -0.00818  -0.00276   0.03388   0.03832   0.05956
 Alpha virt. eigenvalues --    0.07065   0.08225   0.08839   0.09622   0.09753
 Alpha virt. eigenvalues --    0.09982   0.11401   0.11563   0.12209   0.12620

 Mulliken charges:
               1
     1  C    0.013813
     2  C   -0.326034
     3  C    0.175050
     4  N   -0.189279
     5  C   -0.016974
     6  H    0.031731
     7  C    0.244591
     8  O   -0.352941
     9  C   -0.382328
    10  C    0.005382
    11  C    0.024228
    12  C    0.035634
    13  N   -0.193025
    14  C    0.181709
    15  O   -0.353029
    16  C    0.249361
    17  C   -0.049556
    18  H    0.032502
    19  C    0.017504
    20  C   -0.004437
    21  C   -0.021024
    22  C   -0.011933
    23  C   -0.019041
    24  C   -0.043145
    25  C    0.012228
    26  H    0.048880
    27  H    0.057806
    28  H    0.058081
    29  H    0.042745
    30  H    0.044548
    31  H    0.033947
    32  H    0.028901
    33  H    0.053413
    34  H    0.036741
    35  H    0.034169
    36  H    0.024739
    37  H    0.024863
    38  H    0.056055
    39  H    0.029237
    40  H    0.048624
    41  H    0.047525
    42  H    0.016028
    43  H    0.020512
    44  H    0.020578
    45  H    0.018019
    46  H    0.021676
    47  H    0.059505
    48  H    0.059066
    49  H    0.053355
 Sum of Mulliken charges =  -0.00000

 Dipole moment (field-independent basis, Debye):
    X=              0.1343    Y=              0.7718    Z=              0.1687  Tot=              0.8013
 Quadrupole moment (field-independent basis, Debye-Ang):
   XX=           -128.2717   YY=           -134.8705   ZZ=           -131.1536
   XY=             -1.5456   XZ=              1.6436   YZ=             -1.3075

  Exact polarizability: 226.690   4.952 221.326 -17.339   2.221 185.729
 Approx polarizability: 279.679   7.448 346.371 -28.672  12.621 277.521

 Summary of Natural Population Analysis:

                                       Natural Population
                Natural  -----------------------------------------------
    Atom  No    Charge         Core      Valence    Rydberg      Total
 -----------------------------------------------------------------------
      C    1   -0.63898      1.99924     4.62638    0.01336     6.63898
      C    2   -0.17081      1.99879     4.15471    0.01731     6.17081
      C    3    0.62304      1.99900     3.32758    0.05038     5.37696
      N    4   -0.53364      1.99927     5.51757    0.01679     7.53364
      C    5   -0.08781      1.99893     4.06115    0.02773     6.08781
      H    6    0.24447      0.00000     0.75220    0.00333     0.75553
      C    7   -0.08309      1.99903     4.06426    0.01980     6.08309
      O    8   -0.57895      1.99965     6.56841    0.01089     8.57895
      C    9   -0.08261      1.99886     4.06722    0.01653     6.08261
      C   10   -0.65989      1.99918     4.64691    0.01381     6.65989
      C   11   -0.64982      1.99918     4.63715    0.01349     6.64982
      C   12   -0.64890      1.99919     4.63519    0.01453     6.64890
      N   13   -0.51989      1.99927     5.50403    0.01659     7.51989
      C   14    0.62069      1.99901     3.32982    0.05048     5.37931
      O   15   -0.58081      1.99965     6.57049    0.01067     8.58081
      C   16   -0.08284      1.99905     4.06365    0.02014     6.08284
      C   17   -0.09826      1.99894     4.07407    0.02525     6.09826
      H   18    0.24758      0.00000     0.74923    0.00318     0.75242
      C   19   -0.04877      1.99886     4.02986    0.02004     6.04877
      C   20   -0.20950      1.99888     4.19444    0.01617     6.20950
      C   21   -0.22000      1.99895     4.20590    0.01515     6.22000
      C   22   -0.23232      1.99895     4.21830    0.01507     6.23232
      C   23   -0.22001      1.99895     4.20559    0.01547     6.22001
      C   24   -0.23431      1.99889     4.22048    0.01494     6.23431
      C   25   -0.63511      1.99923     4.62297    0.01291     6.63511
      H   26    0.23165      0.00000     0.76606    0.00229     0.76835
      H   27    0.23992      0.00000     0.75741    0.00267     0.76008
      H   28    0.24002      0.00000     0.75732    0.00265     0.75998
      H   29    0.21139      0.00000     0.78567    0.00295     0.78861
      H   30    0.21231      0.00000     0.78456    0.00313     0.78769
      H   31    0.22935      0.00000     0.76813    0.00252     0.77065
      H   32    0.22108      0.00000     0.77643    0.00248     0.77892
      H   33    0.23374      0.00000     0.76321    0.00305     0.76626
      H   34    0.22964      0.00000     0.76781    0.00256     0.77036
      H   35    0.22514      0.00000     0.77224    0.00263     0.77486
      H   36    0.21826      0.00000     0.77923    0.00250     0.78174
      H   37    0.21873      0.00000     0.77871    0.00256     0.78127
      H   38    0.24555      0.00000     0.75153    0.00291     0.75445
      H   39    0.22471      0.00000     0.77283    0.00246     0.77529
      H   40    0.21342      0.00000     0.78342    0.00316     0.78658
      H   41    0.21858      0.00000     0.77834    0.00307     0.78142
      H   42    0.23356      0.00000     0.76356    0.00287     0.76644
      H   43    0.23053      0.00000     0.76673    0.00275     0.76947
      H   44    0.23012      0.00000     0.76717    0.00271     0.76988
      H   45    0.23005      0.00000     0.76721    0.00275     0.76995
      H   46    0.23009      0.00000     0.76613    0.00378     0.76991
      H   47    0.23899      0.00000     0.75824    0.00277     0.76101
      H   48    0.23866      0.00000     0.75880    0.00254     0.76134
      H   49    0.23503      0.00000     0.76226    0.00271     0.76497
 =======================================================================
   * Total *    0.00000     45.97893   123.50055    0.52052   170.00000

 ******    2 imaginary frequencies (negative Signs) ******

                      1                      2                      3
                      A                      A                      A
 Frequencies --    -64.9749               -45.7336                29.6260
 Red. masses --      5.6758                 5.3464                 3.7935
 Frc consts  --      0.0141                 0.0066                 0.0020
 IR Inten    --      0.2021                 0.1899                 0.0398

                      4                      5                      6
                      A                      A                      A
 Frequencies --     43.1628                55.7098                59.2049
 Red. masses --      3.9785                 3.3998                 4.2763
 Frc consts  --      0.0044                 0.0062                 0.0088
 IR Inten    --      0.1647                 0.2655                 0.2235

                      7                      8                      9
                      A                      A                      A
 Frequencies --     73.0350               104.2593               135.3889
 Red. masses --      3.1710                 5.4065                 3.5736
 Frc consts  --      0.0100                 0.0346                 0.0386
 IR Inten    --      0.1410                 0.3868                 1.5762

                     10                     11                     12
                      A                      A                      A
 Frequencies --    150.4106               196.1637               202.7240
 Red. masses --      3.2482                 1.5584                 1.3504
 Frc consts  --      0.0433                 0.0353                 0.0327
 IR Inten    --      1.3306                 1.2341                 0.2504

                     13                     14                     15
                      A                      A                      A
 Frequencies --    230.5786               240.4188               246.6665
 Red. masses --      1.6646                 2.2146                 1.7266
 Frc consts  --      0.0521                 0.0754                 0.0619
 IR Inten    --      0.5917                 0.1198                 0.2728

                     16                     17                     18
                      A                      A                      A
 Frequencies --    248.6536               259.2769               267.3322
 Red. masses --      1.5982                 1.6768                 1.6184
 Frc consts  --      0.0582                 0.0664                 0.0681
 IR Inten    --      0.1952                 0.1937                 0.6593

                     19                     20                     21
                      A                      A                      A
 Frequencies --    271.1056               273.3959               289.3895
 Red. masses --      1.4615                 1.4746                 1.8280
 Frc consts  --      0.0633                 0.0649                 0.0902
 IR Inten    --      0.0681                 0.0658                 0.2401

                     22                     23                     24
                      A                      A                      A
 Frequencies --    311.1724               335.2224               348.0783
 Red. masses --      3.1497                 3.1059                 3.1087
 Frc consts  --      0.1797                 0.2056                 0.2219
 IR Inten    --      0.4563                 2.4685                 2.9160

                     25                     26                     27
                      A                      A                      A
 Frequencies --    358.9436               367.9870               376.7230
 Red. masses --      3.4936                 4.4260                 2.9189
 Frc consts  --      0.2652                 0.3531                 0.2441
 IR Inten    --      0.8136                 1.0232                 1.2359

                     28                     29                     30
                      A                      A                      A
 Frequencies --    399.8705               406.2845               417.7157
 Red. masses --      2.4912                 3.3414                 2.8474
 Frc consts  --      0.2347                 0.3250                 0.2927
 IR Inten    --      0.3342                10.6879                 0.0366

                     31                     32                     33
                      A                      A                      A
 Frequencies --    472.8483               525.1237               542.2186
 Red. masses --      2.6081                 3.0886                 3.3016
 Frc consts  --      0.3436                 0.5018                 0.5719
 IR Inten    --      0.7886                 4.8762                 4.0854

                     34                     35                     36
                      A                      A                      A
 Frequencies --    598.8414               615.9262               630.2862
 Red. masses --      4.1166                 4.0275                 6.3398
 Frc consts  --      0.8698                 0.9002                 1.4839
 IR Inten    --     11.6211                10.8169                 0.0889

                     37                     38                     39
                      A                      A                      A
 Frequencies --    715.3209               722.9339               742.8569
 Red. masses --      3.7915                 1.5301                 5.4122
 Frc consts  --      1.1430                 0.4712                 1.7597
 IR Inten    --      0.9461                42.9794                 1.1276

                     40                     41                     42
                      A                      A                      A
 Frequencies --    763.7682               767.3482               780.8235
 Red. masses --      3.2068                 3.3397                 2.7565
 Frc consts  --      1.1022                 1.1586                 0.9902
 IR Inten    --      4.6375                 6.0281                 8.1462

                     43                     44                     45
                      A                      A                      A
 Frequencies --    791.7187               817.7801               832.8761
 Red. masses --      3.2312                 5.7771                 4.6730
 Frc consts  --      1.1933                 2.2763                 1.9099
 IR Inten    --      9.7415                 4.3780                 6.4032

                     46                     47                     48
                      A                      A                      A
 Frequencies --    864.1553               871.7779               922.4910
 Red. masses --      1.2510                 2.0318                 2.6683
 Frc consts  --      0.5504                 0.9098                 1.3379
 IR Inten    --      0.2452                 2.9648                 0.9119

                     49                     50                     51
                      A                      A                      A
 Frequencies --    942.3092               943.2893               947.7368
 Red. masses --      1.5334                 1.4169                 1.4454
 Frc consts  --      0.8022                 0.7428                 0.7649
 IR Inten    --      4.2117                 0.9535                 1.3355

                     52                     53                     54
                      A                      A                      A
 Frequencies --    952.9919               957.2220               978.0976
 Red. masses --      1.4343                 1.4503                 4.6810
 Frc consts  --      0.7675                 0.7829                 2.6385
 IR Inten    --      0.9671                 1.6948                60.8612

                     55                     56                     57
                      A                      A                      A
 Frequencies --    984.3750               994.9896               998.2669
 Red. masses --      2.2552                 2.5127                 2.4163
 Frc consts  --      1.2875                 1.4657                 1.4187
 IR Inten    --      5.9775                14.3087                 3.1271

                     58                     59                     60
                      A                      A                      A
 Frequencies --   1001.4732              1016.7785              1017.5330
 Red. masses --      1.4314                 1.9283                 5.0477
 Frc consts  --      0.8458                 1.1746                 3.0792
 IR Inten    --      0.6022                 4.3461                 0.9384

                     61                     62                     63
                      A                      A                      A
 Frequencies --   1021.1074              1022.1131              1024.7855
 Red. masses --      2.4979                 1.3687                 1.5192
 Frc consts  --      1.5345                 0.8425                 0.9400
 IR Inten    --     25.0610                 1.2675                 4.2171

                     64                     65                     66
                      A                      A                      A
 Frequencies --   1027.0008              1038.7279              1054.3983
 Red. masses --      3.1485                 3.2834                 2.3074
 Frc consts  --      1.9566                 2.0873                 1.5114
 IR Inten    --      2.1689                 5.3723                 3.6706

                     67                     68                     69
                      A                      A                      A
 Frequencies --   1057.4442              1064.5976              1069.4136
 Red. masses --      1.7541                 1.9459                 2.0648
 Frc consts  --      1.1556                 1.2994                 1.3913
 IR Inten    --      3.2203                 2.4708                 5.4008

                     70                     71                     72
                      A                      A                      A
 Frequencies --   1086.7468              1114.3613              1170.2377
 Red. masses --      2.5591                 1.4339                 1.0915
 Frc consts  --      1.7807                 1.0491                 0.8807
 IR Inten    --      8.9952                11.8398                 2.8819

                     73                     74                     75
                      A                      A                      A
 Frequencies --   1171.0059              1172.8328              1193.8121
 Red. masses --      3.6795                 3.0903                 1.1143
 Frc consts  --      2.9727                 2.5045                 0.9356
 IR Inten    --     15.2291               264.4430                 2.8075

                     76                     77                     78
                      A                      A                      A
 Frequencies --   1207.8363              1213.9440              1227.6941
 Red. masses --      1.4779                 1.3829                 2.2187
 Frc consts  --      1.2703                 1.2007                 1.9703
 IR Inten    --      4.5090                13.4234                 5.0603

                     79                     80                     81
                      A                      A                      A
 Frequencies --   1231.8502              1235.7875              1246.8183
 Red. masses --      1.5512                 1.5361                 1.3997
 Frc consts  --      1.3868                 1.3822                 1.2820
 IR Inten    --     19.3824                 1.0022                19.6451

                     82                     83                     84
                      A                      A                      A
 Frequencies --   1248.6511              1274.0614              1284.2805
 Red. masses --      1.9191                 1.9425                 2.5100
 Frc consts  --      1.7629                 1.8577                 2.4392
 IR Inten    --      0.4488                14.0313                 9.2670

                     85                     86                     87
                      A                      A                      A
 Frequencies --   1309.6119              1325.0694              1336.7669
 Red. masses --      1.8182                 1.6053                 1.4866
 Frc consts  --      1.8373                 1.6607                 1.5652
 IR Inten    --     13.2123                 5.8599                 2.5987

                     88                     89                     90
                      A                      A                      A
 Frequencies --   1356.8909              1361.9233              1371.1884
 Red. masses --      1.6541                 1.2416                 1.8411
 Frc consts  --      1.7943                 1.3569                 2.0395
 IR Inten    --      5.8528                 7.2779                12.7845

                     91                     92                     93
                      A                      A                      A
 Frequencies --   1376.9126              1380.4951              1385.8093
 Red. masses --      1.3806                 1.3231                 1.4504
 Frc consts  --      1.5422                 1.4856                 1.6412
 IR Inten    --      6.7677                10.0637                10.4883

                     94                     95                     96
                      A                      A                      A
 Frequencies --   1405.6211              1406.3268              1421.8155
 Red. masses --      4.5174                 1.2973                 1.9858
 Frc consts  --      5.2586                 1.5117                 2.3652
 IR Inten    --      3.3398                12.4034                 6.8655

                     97                     98                     99
                      A                      A                      A
 Frequencies --   1434.9916              1443.0821              1451.7102
 Red. masses --      1.9203                 1.0552                 1.0453
 Frc consts  --      2.3298                 1.2947                 1.2980
 IR Inten    --     29.4826                 2.4211                 2.5051

                    100                    101                    102
                      A                      A                      A
 Frequencies --   1453.5668              1456.7676              1459.5460
 Red. masses --      1.0453                 1.0443                 1.0430
 Frc consts  --      1.3012                 1.3057                 1.3091
 IR Inten    --      0.9932                 0.2136                 0.4862

                    103                    104                    105
                      A                      A                      A
 Frequencies --   1469.6820              1474.3052              1477.4917
 Red. masses --      1.0718                 1.0904                 1.0930
 Frc consts  --      1.3640                 1.3964                 1.4058
 IR Inten    --      6.2663                 2.4423                 7.2528

                    106                    107                    108
                      A                      A                      A
 Frequencies --   1485.6120              1489.4198              1493.5915
 Red. masses --      1.1710                 1.1651                 1.2981
 Frc consts  --      1.5227                 1.5228                 1.7062
 IR Inten    --      2.7734                12.4927                 8.2649

                    109                    110                    111
                      A                      A                      A
 Frequencies --   1497.4556              1506.2950              1538.8316
 Red. masses --      1.6682                 1.5436                 2.6085
 Frc consts  --      2.2040                 2.0635                 3.6394
 IR Inten    --     16.9713                79.4102                 8.6477

                    112                    113                    114
                      A                      A                      A
 Frequencies --   1671.4921              1691.9840              1733.2974
 Red. masses --      6.4184                 6.4375                11.1100
 Frc consts  --     10.5654                10.8582                19.6657
 IR Inten    --      0.9085                 3.2183                63.8804

                    115                    116                    117
                      A                      A                      A
 Frequencies --   1759.8687              3047.2614              3051.1963
 Red. masses --     11.2731                 1.0366                 1.0371
 Frc consts  --     20.5710                 5.6715                 5.6886
 IR Inten    --    249.2382                22.5371                20.4079

                    118                    119                    120
                      A                      A                      A
 Frequencies --   3057.0174              3070.3619              3075.2124
 Red. masses --      1.0382                 1.0348                 1.0362
 Frc consts  --      5.7167                 5.7474                 5.7733
 IR Inten    --     17.4639                11.1226                10.9047

                    121                    122                    123
                      A                      A                      A
 Frequencies --   3088.3331              3092.7770              3100.4958
 Red. masses --      1.0726                 1.0659                 1.0789
 Frc consts  --      6.0276                 6.0071                 6.1110
 IR Inten    --     18.4712                30.5841                37.7178

                    124                    125                    126
                      A                      A                      A
 Frequencies --   3120.4265              3138.9242              3142.0176
 Red. masses --      1.0879                 1.1031                 1.1027
 Frc consts  --      6.2410                 6.4037                 6.4141
 IR Inten    --     19.3983                11.6163                28.0324

                    127                    128                    129
                      A                      A                      A
 Frequencies --   3145.5582              3148.5602              3149.9286
 Red. masses --      1.1031                 1.1038                 1.1025
 Frc consts  --      6.4307                 6.4472                 6.4448
 IR Inten    --      6.2496                10.7299                33.0000

                    130                    131                    132
                      A                      A                      A
 Frequencies --   3157.6421              3170.7704              3173.8083
 Red. masses --      1.1037                 1.1075                 1.1052
 Frc consts  --      6.4839                 6.5603                 6.5591
 IR Inten    --     21.1338                18.1991                 6.4453

                    133                    134                    135
                      A                      A                      A
 Frequencies --   3175.4856              3179.4573              3187.1340
 Red. masses --      1.1037                 1.1073                 1.1056
 Frc consts  --      6.5574                 6.5950                 6.6168
 IR Inten    --     10.8941                13.6805                 5.5817

                    136                    137                    138
                      A                      A                      A
 Frequencies --   3194.7680              3195.0372              3198.7576
 Red. masses --      1.0880                 1.1052                 1.0896
 Frc consts  --      6.5428                 6.6472                 6.5686
 IR Inten    --      3.5131                 6.6658                 1.1782

                    139                    140                    141
                      A                      A                      A
 Frequencies --   3208.6634              3219.1425              3229.0234
 Red. masses --      1.0914                 1.0961                 1.1006
 Frc consts  --      6.6206                 6.6924                 6.7612
 IR Inten    --      2.8562                14.1646                11.1642

 - Thermochemistry -
 -------------------
 Temperature   298.150 Kelvin.  Pressure   1.00000 Atm.
 Atom     1 has atomic number  6 and mass  12.00000

 Molecular mass:   314.19943 amu.
 Principal axes and moments of inertia in atomic units:
                           1         2         3
     Eigenvalues --  4175.13868********************
           X            0.99991  -0.01186  -0.00616
           Y            0.01195   0.99981   0.01519
           Z            0.00598  -0.01526   0.99987
 This molecule is an asymmetric top.
 Rotational symmetry number  1.
 Warning -- assumption of classical behavior for rotation
           may cause significant error
 Rotational temperatures (Kelvin)      0.02075     0.00717     0.00641
 Rotational constants (GHZ):           0.43226     0.14949     0.13351
    2 imaginary frequencies ignored.
 Zero-point vibrational energy    1112630.8 (Joules/Mol)
                                  265.92515 (Kcal/Mol)
 Warning -- explicit consideration of  33 degrees of freedom as
           vibrations may cause significant error
 Vibrational temperatures:     42.63    62.10    80.15    85.18   105.08
          (Kelvin)            150.01   194.79   216.41   282.24   291.67
                              331.75   345.91   354.90   357.76   373.04
                              384.63   390.06   393.36   416.37   447.71
                              482.31   500.81   516.44   529.45   542.02
                              575.32   584.55   601.00   680.32   755.54
                              780.13   861.60   886.18   906.84  1029.19
                             1040.14  1068.81  1098.89  1104.04  1123.43
                             1139.11  1176.60  1198.32  1243.33  1254.29
                             1327.26  1355.77  1357.18  1363.58  1371.14
                             1377.23  1407.26  1416.30  1431.57  1436.28
                             1440.90  1462.92  1464.00  1469.15  1470.59
                             1474.44  1477.63  1494.50  1517.04  1521.43
                             1531.72  1538.65  1563.59  1603.32  1683.71
                             1684.82  1687.44  1717.63  1737.81  1746.59
                             1766.38  1772.36  1778.02  1793.89  1796.53
                             1833.09  1847.79  1884.24  1906.48  1923.31
                             1952.26  1959.50  1972.83  1981.07  1986.22
                             1993.87  2022.38  2023.39  2045.68  2064.63
                             2076.27  2088.69  2091.36  2095.96  2099.96
                             2114.54  2121.20  2125.78  2137.46  2142.94
                             2148.95  2154.50  2167.22  2214.04  2404.90
                             2434.39  2493.83  2532.06  4384.33  4389.99
                             4398.37  4417.57  4424.54  4443.42  4449.82
                             4460.92  4489.60  4516.21  4520.66  4525.76
                             4530.08  4532.04  4543.14  4562.03  4566.40
                             4568.82  4574.53  4585.58  4596.56  4596.95
                             4602.30  4616.55  4631.63  4645.84

 Zero-point correction=                           0.423779 (Hartree/Particle)
 Thermal correction to Energy=                    0.444557
 Thermal correction to Enthalpy=                  0.445501
 Thermal correction to Gibbs Free Energy=         0.374711
 Sum of electronic and zero-point Energies=           -997.363999
 Sum of electronic and thermal Energies=              -997.343221
 Sum of electronic and thermal Enthalpies=            -997.342277
 Sum of electronic and thermal Free Energies=         -997.413067

                     E (Thermal)             CV                S
                      KCal/Mol        Cal/Mol-Kelvin    Cal/Mol-Kelvin
 Total                  278.964             83.057            148.991
 Electronic               0.000              0.000              0.000
 Translational            0.889              2.981             43.131
 Rotational               0.889              2.981             34.876
 Vibrational            277.186             77.095             70.985
 Vibration     1          0.593              1.984              5.854
 Vibration     2          0.595              1.980              5.108
 Vibration     3          0.596              1.975              4.604
 Vibration     4          0.597              1.974              4.484
 Vibration     5          0.599              1.967              4.070
 Vibration     6          0.605              1.946              3.373
 Vibration     7          0.613              1.918              2.868
 Vibration     8          0.618              1.902              2.667
 Vibration     9          0.636              1.845              2.169
 Vibration    10          0.639              1.836              2.108
 Vibration    11          0.652              1.794              1.874
 Vibration    12          0.657              1.779              1.800
 Vibration    13          0.661              1.768              1.754
 Vibration    14          0.662              1.765              1.740
 Vibration    15          0.668              1.747              1.667
 Vibration    16          0.672              1.733              1.613
 Vibration    17          0.675              1.726              1.589
 Vibration    18          0.676              1.722              1.575
 Vibration    19          0.686              1.693              1.478
 Vibration    20          0.700              1.652              1.356
 Vibration    21          0.716              1.605              1.235
 Vibration    22          0.726              1.579              1.175
 Vibration    23          0.734              1.557              1.127
 Vibration    24          0.741              1.538              1.088
 Vibration    25          0.747              1.520              1.052
 Vibration    26          0.766              1.470              0.963
 Vibration    27          0.771              1.457              0.940
 Vibration    28          0.781              1.432              0.900
 Vibration    29          0.830              1.310              0.730
 Vibration    30          0.880              1.194              0.598
 Vibration    31          0.897              1.157              0.561
 Vibration    32          0.957              1.034              0.452
 Vibration    33          0.976              0.998              0.423

 Normal termination of Gaussian 16 at Thu Nov  3 08:41:25 2022.
