 Gaussian 16, Revision A.03,
 Gaussian 16:  ES64L-G16RevA.03 25-Dec-2016

 ----------------------------------------------------------------------
 #p pop=(regular,nbo,savenbos) freq=noraman def2svp empiricaldispersion
 =gd3bj output=wfx pbe1pbe
 ----------------------------------------------------------------------

 --------
 06_lig_b
 --------
 Symbolic Z-matrix:
 Charge =  0 Multiplicity = 1

                         Standard orientation:
 ---------------------------------------------------------------------
 Center     Atomic      Atomic             Coordinates (Angstroms)
 Number     Number       Type             X           Y           Z
 ---------------------------------------------------------------------
      1          6           0        4.407953    0.293613    0.060561
      2          6           0        2.951695    0.763226    0.087794
      3          6           0        2.093540   -0.328097   -0.584858
      4          1           0        2.395343   -0.396670   -1.643685
      5          6           0        2.104163   -1.715765    0.088433
      6          8           0        0.712774   -2.030835    0.291562
      7          6           0        0.011043   -0.982874   -0.126258
      8          7           0        0.669925   -0.000145   -0.599077
      9          7           0       -1.763843    1.295693   -0.557732
     10          6           0       -2.160814    0.209015   -0.021110
     11          6           0       -1.489216   -1.139467   -0.115508
     12          6           0       -1.864947   -1.749147   -1.488801
     13          6           0       -1.936616   -2.049747    1.029542
     14          8           0       -3.324253    0.249835    0.622958
     15          6           0       -3.821906    1.601225    0.519609
     16          6           0       -2.746442    2.337120   -0.296647
     17          6           0        2.496058    1.012218    1.525297
     18          6           0        2.828185    2.060210   -0.716607
     19          1           0        5.064645    1.058295    0.502276
     20          1           0        4.746128    0.118190   -0.972865
     21          1           0        4.558770   -0.636244    0.632816
     22          1           0        2.594328   -1.726198    1.072375
     23          1           0        2.540304   -2.505146   -0.537426
     24          1           0       -1.449304   -1.144765   -2.309704
     25          1           0       -2.958467   -1.806327   -1.586948
     26          1           0       -1.452286   -2.765475   -1.560480
     27          1           0       -1.682888   -1.620002    2.008964
     28          1           0       -1.441246   -3.024201    0.940520
     29          1           0       -3.023540   -2.192393    0.988610
     30          1           0       -3.950614    1.989272    1.539736
     31          1           0       -4.803402    1.560414    0.026802
     32          1           0       -2.263146    3.170359    0.233083
     33          1           0       -3.101374    2.748243   -1.252192
     34          1           0        3.096840    1.814381    1.980141
     35          1           0        2.605354    0.122006    2.165760
     36          1           0        1.441914    1.328914    1.552182
     37          1           0        3.556142    2.801690   -0.352552
     38          1           0        1.832243    2.523414   -0.625468
     39          1           0        3.007343    1.892217   -1.789124
 ---------------------------------------------------------------------

 SCF Done:  E(RPBE1PBE) =  -767.154033174     A.U. after   14 cycles

 The electronic state is 1-A.
 Alpha  occ. eigenvalues --  -19.24342 -19.24233 -14.34994 -14.34715 -10.30899
 Alpha  occ. eigenvalues --  -10.30848 -10.28972 -10.28420 -10.26873 -10.25554
 Alpha  occ. eigenvalues --  -10.25486 -10.24011 -10.23432 -10.22591 -10.22229
 Alpha  occ. eigenvalues --  -10.21516 -10.20948  -1.11684  -1.11452  -0.91399
 Alpha  occ. eigenvalues --   -0.90251  -0.85745  -0.82676  -0.77261  -0.75014
 Alpha  occ. eigenvalues --   -0.70516  -0.69457  -0.68844  -0.65700  -0.64744
 Alpha  occ. eigenvalues --   -0.63715  -0.59614  -0.55219  -0.54115  -0.52321
 Alpha  occ. eigenvalues --   -0.51577  -0.50777  -0.49141  -0.47016  -0.46063
 Alpha  occ. eigenvalues --   -0.45275  -0.44763  -0.44380  -0.43772  -0.42970
 Alpha  occ. eigenvalues --   -0.41447  -0.40804  -0.40370  -0.39306  -0.38928
 Alpha  occ. eigenvalues --   -0.37569  -0.37264  -0.37038  -0.36598  -0.36354
 Alpha  occ. eigenvalues --   -0.36287  -0.35580  -0.34887  -0.33656  -0.33190
 Alpha  occ. eigenvalues --   -0.32437  -0.28039  -0.24915  -0.24160  -0.23646
 Alpha virt. eigenvalues --    0.02781   0.04257   0.06000   0.07079   0.08440
 Alpha virt. eigenvalues --    0.09563   0.10319   0.10504   0.11426   0.12093
 Alpha virt. eigenvalues --    0.12520   0.12796   0.13381   0.13704   0.14095

 Mulliken charges:
               1
     1  C    0.020873
     2  C   -0.377907
     3  C   -0.023761
     4  H    0.032056
     5  C    0.250453
     6  O   -0.345342
     7  C    0.175225
     8  N   -0.194280
     9  N   -0.237898
    10  C    0.163354
    11  C   -0.357868
    12  C    0.030972
    13  C    0.057643
    14  O   -0.340588
    15  C    0.140355
    16  C    0.056429
    17  C    0.002705
    18  C    0.031486
    19  H    0.037094
    20  H    0.033262
    21  H    0.026654
    22  H    0.042973
    23  H    0.043604
    24  H    0.067358
    25  H    0.047940
    26  H    0.047491
    27  H    0.042937
    28  H    0.052164
    29  H    0.049153
    30  H    0.052174
    31  H    0.050363
    32  H    0.050338
    33  H    0.048400
    34  H    0.032756
    35  H    0.023220
    36  H    0.057337
    37  H    0.024292
    38  H    0.060108
    39  H    0.026476
 Sum of Mulliken charges =  -0.00000

 Dipole moment (field-independent basis, Debye):
    X=             -0.5680    Y=             -0.2935    Z=              0.5301  Tot=              0.8305
 Quadrupole moment (field-independent basis, Debye-Ang):
   XX=            -91.9041   YY=           -100.2567   ZZ=           -103.9091
   XY=             -6.5893   XZ=              0.4110   YZ=              4.0680

  Exact polarizability: 172.817   1.189 156.634  -3.171  -2.645 127.517
 Approx polarizability: 210.077   7.975 222.719  -8.833 -13.760 189.439

 Summary of Natural Population Analysis:

                                       Natural Population
                Natural  -----------------------------------------------
    Atom  No    Charge         Core      Valence    Rydberg      Total
 -----------------------------------------------------------------------
      C    1   -0.65084      1.99918     4.63830    0.01336     6.65084
      C    2   -0.08061      1.99886     4.06552    0.01624     6.08061
      C    3   -0.08662      1.99895     4.06029    0.02738     6.08662
      H    4    0.23794      0.00000     0.75809    0.00397     0.76206
      C    5   -0.08241      1.99904     4.06439    0.01899     6.08241
      O    6   -0.57091      1.99964     6.56038    0.01089     8.57091
      C    7    0.62786      1.99898     3.32306    0.05009     5.37214
      N    8   -0.54491      1.99925     5.52872    0.01694     7.54491
      N    9   -0.53290      1.99924     5.51793    0.01572     7.53290
      C   10    0.61860      1.99900     3.33285    0.04954     5.38140
      C   11   -0.17022      1.99880     4.15382    0.01760     6.17022
      C   12   -0.62447      1.99923     4.61361    0.01164     6.62447
      C   13   -0.64804      1.99925     4.63478    0.01400     6.64804
      O   14   -0.57248      1.99965     6.56226    0.01057     8.57248
      C   15   -0.09122      1.99911     4.07568    0.01643     6.09122
      C   16   -0.27454      1.99920     4.25853    0.01681     6.27454
      C   17   -0.65879      1.99918     4.64548    0.01413     6.65879
      C   18   -0.64879      1.99919     4.63509    0.01451     6.64879
      H   19    0.22973      0.00000     0.76772    0.00255     0.77027
      H   20    0.22443      0.00000     0.77292    0.00264     0.77557
      H   21    0.21878      0.00000     0.77874    0.00248     0.78122
      H   22    0.20636      0.00000     0.79054    0.00310     0.79364
      H   23    0.21541      0.00000     0.78188    0.00271     0.78459
      H   24    0.24667      0.00000     0.75038    0.00295     0.75333
      H   25    0.22994      0.00000     0.76743    0.00263     0.77006
      H   26    0.22934      0.00000     0.76790    0.00276     0.77066
      H   27    0.23448      0.00000     0.76310    0.00242     0.76552
      H   28    0.24030      0.00000     0.75708    0.00262     0.75970
      H   29    0.23919      0.00000     0.75818    0.00263     0.76081
      H   30    0.20875      0.00000     0.78828    0.00296     0.79125
      H   31    0.20771      0.00000     0.78931    0.00298     0.79229
      H   32    0.22434      0.00000     0.77237    0.00329     0.77566
      H   33    0.22387      0.00000     0.77287    0.00326     0.77613
      H   34    0.22762      0.00000     0.76994    0.00244     0.77238
      H   35    0.21673      0.00000     0.78096    0.00231     0.78327
      H   36    0.24110      0.00000     0.75564    0.00325     0.75890
      H   37    0.21882      0.00000     0.77864    0.00253     0.78118
      H   38    0.24694      0.00000     0.75021    0.00285     0.75306
      H   39    0.22282      0.00000     0.77470    0.00248     0.77718
 =======================================================================
   * Total *   -0.00000     33.98576    95.61758    0.39667   130.00000

 ******    2 imaginary frequencies (negative Signs) ******

                      1                      2                      3
                      A                      A                      A
 Frequencies --   -135.5232               -85.6610                32.8696
 Red. masses --      8.6595                 5.9664                 3.0490
 Frc consts  --      0.0937                 0.0258                 0.0019
 IR Inten    --      1.1424                 0.6674                 0.0056

                      4                      5                      6
                      A                      A                      A
 Frequencies --     55.0336                68.1491                89.5802
 Red. masses --      1.7295                 2.7991                 4.2264
 Frc consts  --      0.0031                 0.0077                 0.0200
 IR Inten    --      0.2001                 0.0548                 0.4223

                      7                      8                      9
                      A                      A                      A
 Frequencies --    147.6525               152.9291               182.0080
 Red. masses --      3.0895                 2.6068                 3.0075
 Frc consts  --      0.0397                 0.0359                 0.0587
 IR Inten    --      3.1019                 1.4159                 1.1316

                     10                     11                     12
                      A                      A                      A
 Frequencies --    200.4503               224.7986               244.2249
 Red. masses --      1.0943                 1.3216                 1.2265
 Frc consts  --      0.0259                 0.0393                 0.0431
 IR Inten    --      0.2764                 0.1026                 0.0146

                     13                     14                     15
                      A                      A                      A
 Frequencies --    249.5295               266.3243               270.5035
 Red. masses --      2.5501                 1.1778                 1.2832
 Frc consts  --      0.0936                 0.0492                 0.0553
 IR Inten    --      0.2619                 0.1160                 0.6115

                     16                     17                     18
                      A                      A                      A
 Frequencies --    281.2424               292.0765               303.9243
 Red. masses --      1.7484                 1.7604                 2.2023
 Frc consts  --      0.0815                 0.0885                 0.1199
 IR Inten    --      0.1663                 0.6255                 1.1485

                     19                     20                     21
                      A                      A                      A
 Frequencies --    324.0032               337.4442               347.4615
 Red. masses --      3.6059                 3.3605                 2.5539
 Frc consts  --      0.2230                 0.2255                 0.1817
 IR Inten    --      7.7441                 0.3212                 1.6715

                     22                     23                     24
                      A                      A                      A
 Frequencies --    381.2921               395.4098               415.4342
 Red. masses --      2.7160                 2.5321                 3.4149
 Frc consts  --      0.2326                 0.2333                 0.3472
 IR Inten    --      1.8583                 0.6589                 9.8371

                     25                     26                     27
                      A                      A                      A
 Frequencies --    475.1603               528.0481               609.9035
 Red. masses --      2.8747                 2.8163                 4.1476
 Frc consts  --      0.3824                 0.4627                 0.9090
 IR Inten    --      0.3253                 2.4475                13.6122

                     28                     29                     30
                      A                      A                      A
 Frequencies --    687.0787               726.1363               762.8568
 Red. masses --      3.6447                 3.6399                 2.8770
 Frc consts  --      1.0137                 1.1308                 0.9864
 IR Inten    --      1.0224                 0.6840                 2.2253

                     31                     32                     33
                      A                      A                      A
 Frequencies --    768.9385               772.6957               799.2853
 Red. masses --      5.3234                 4.8651                 3.8979
 Frc consts  --      1.8545                 1.7114                 1.4672
 IR Inten    --      3.5853                 4.2974                 1.6673

                     34                     35                     36
                      A                      A                      A
 Frequencies --    815.9608               886.7446               922.9731
 Red. masses --      1.3439                 2.2667                 2.9409
 Frc consts  --      0.5272                 1.0501                 1.4761
 IR Inten    --      0.2996                 4.8025                 2.5834

                     37                     38                     39
                      A                      A                      A
 Frequencies --    943.3894               947.7093               953.1324
 Red. masses --      1.3492                 1.4611                 1.4106
 Frc consts  --      0.7075                 0.7732                 0.7550
 IR Inten    --      1.7991                 1.4131                 1.2304

                     40                     41                     42
                      A                      A                      A
 Frequencies --    957.4202               964.3539               988.7251
 Red. masses --      1.7287                 3.1356                 1.8600
 Frc consts  --      0.9336                 1.7181                 1.0713
 IR Inten    --      2.6826                21.6430                 9.1944

                     43                     44                     45
                      A                      A                      A
 Frequencies --    993.3907              1015.2686              1018.3903
 Red. masses --      2.1733                 2.8371                 1.6966
 Frc consts  --      1.2636                 1.7230                 1.0367
 IR Inten    --     25.6927                17.2474                 3.9084

                     46                     47                     48
                      A                      A                      A
 Frequencies --   1019.8645              1023.5318              1033.4540
 Red. masses --      2.1294                 2.8002                 5.1980
 Frc consts  --      1.3050                 1.7284                 3.2709
 IR Inten    --     10.8724                23.0569                12.7032

                     49                     50                     51
                      A                      A                      A
 Frequencies --   1055.1734              1062.1035              1080.2880
 Red. masses --      1.6402                 3.5271                 2.1686
 Frc consts  --      1.0759                 2.3442                 1.4911
 IR Inten    --      3.3698                18.7378                 2.6377

                     52                     53                     54
                      A                      A                      A
 Frequencies --   1091.8015              1103.7393              1174.2398
 Red. masses --      3.1531                 1.6667                 3.0322
 Frc consts  --      2.2145                 1.1963                 2.4634
 IR Inten    --     10.7665                 0.0955                45.1264

                     55                     56                     57
                      A                      A                      A
 Frequencies --   1178.0116              1203.6068              1214.7355
 Red. masses --      2.9057                 1.2062                 1.3558
 Frc consts  --      2.3758                 1.0295                 1.1787
 IR Inten    --    205.4634                 4.6694                 3.4561

                     58                     59                     60
                      A                      A                      A
 Frequencies --   1229.1538              1233.9511              1237.7759
 Red. masses --      1.5712                 1.0614                 2.6453
 Frc consts  --      1.3986                 0.9522                 2.3879
 IR Inten    --     14.9379                 0.2810                 5.5800

                     61                     62                     63
                      A                      A                      A
 Frequencies --   1252.1258              1278.3640              1286.3865
 Red. masses --      2.1641                 1.8137                 1.8951
 Frc consts  --      1.9991                 1.7464                 1.8477
 IR Inten    --      2.6700                49.7605                 0.1531

                     64                     65                     66
                      A                      A                      A
 Frequencies --   1289.1560              1321.5690              1344.1356
 Red. masses --      2.0754                 1.5251                 1.6046
 Frc consts  --      2.0322                 1.5694                 1.7081
 IR Inten    --      4.2904                 3.3234                 3.1842

                     67                     68                     69
                      A                      A                      A
 Frequencies --   1363.0244              1366.6424              1379.1376
 Red. masses --      1.2905                 1.5762                 1.3566
 Frc consts  --      1.4126                 1.7344                 1.5202
 IR Inten    --      3.0239                13.9732                14.3872

                     70                     71                     72
                      A                      A                      A
 Frequencies --   1386.7638              1390.3060              1406.6023
 Red. masses --      1.4642                 1.3485                 1.2603
 Frc consts  --      1.6590                 1.5357                 1.4692
 IR Inten    --      7.4956                14.3910                15.7705

                     73                     74                     75
                      A                      A                      A
 Frequencies --   1431.2655              1435.7252              1443.8094
 Red. masses --      1.9091                 1.9196                 1.0692
 Frc consts  --      2.3042                 2.3314                 1.3132
 IR Inten    --     17.9961                55.1549                 3.7024

                     76                     77                     78
                      A                      A                      A
 Frequencies --   1450.2319              1454.9113              1457.0472
 Red. masses --      1.0567                 1.0450                 1.0612
 Frc consts  --      1.3095                 1.3033                 1.3273
 IR Inten    --      3.7614                 0.4444                 2.2306

                     79                     80                     81
                      A                      A                      A
 Frequencies --   1459.9374              1468.8517              1471.7604
 Red. masses --      1.0462                 1.0745                 1.0945
 Frc consts  --      1.3139                 1.3659                 1.3968
 IR Inten    --      0.1566                 2.8662                 4.0995

                     82                     83                     84
                      A                      A                      A
 Frequencies --   1474.3017              1478.7681              1488.0563
 Red. masses --      1.1325                 1.0862                 1.1092
 Frc consts  --      1.4503                 1.3994                 1.4471
 IR Inten    --      4.5214                 3.8701                 6.5996

                     85                     86                     87
                      A                      A                      A
 Frequencies --   1493.8421              1498.3851              1505.8707
 Red. masses --      1.1027                 1.2126                 1.4672
 Frc consts  --      1.4498                 1.6040                 1.9603
 IR Inten    --     20.2628                12.5983                90.8654

                     88                     89                     90
                      A                      A                      A
 Frequencies --   1735.5807              1766.1025              3045.8065
 Red. masses --     10.6827                10.9672                 1.0368
 Frc consts  --     18.9593                20.1548                 5.6667
 IR Inten    --     22.5648               271.0273                20.2113

                     91                     92                     93
                      A                      A                      A
 Frequencies --   3049.6951              3054.2803              3059.4718
 Red. masses --      1.0375                 1.0409                 1.0341
 Frc consts  --      5.6850                 5.7211                 5.7031
 IR Inten    --     26.8398                12.3127                14.2189

                     94                     95                     96
                      A                      A                      A
 Frequencies --   3061.1756              3082.4362              3092.9697
 Red. masses --      1.0839                 1.0367                 1.0601
 Frc consts  --      5.9841                 5.8036                 5.9751
 IR Inten    --     27.4277                11.8879                29.1057

                     97                     98                     99
                      A                      A                      A
 Frequencies --   3098.5663              3100.7981              3135.3216
 Red. masses --      1.0603                 1.0620                 1.1104
 Frc consts  --      5.9979                 6.0160                 6.4314
 IR Inten    --     35.3568                44.4589                 4.5295

                    100                    101                    102
                      A                      A                      A
 Frequencies --   3137.2871              3139.4977              3141.0021
 Red. masses --      1.1031                 1.1022                 1.1027
 Frc consts  --      6.3969                 6.4006                 6.4095
 IR Inten    --      7.9662                35.2546                13.4843

                    103                    104                    105
                      A                      A                      A
 Frequencies --   3147.0710              3152.5360              3153.2626
 Red. masses --      1.1034                 1.1036                 1.1036
 Frc consts  --      6.4388                 6.4622                 6.4652
 IR Inten    --     12.7550                16.3774                26.6876

                    106                    107                    108
                      A                      A                      A
 Frequencies --   3163.2319              3165.5074              3167.0425
 Red. masses --      1.1121                 1.1116                 1.1051
 Frc consts  --      6.5560                 6.5628                 6.5310
 IR Inten    --     22.7222                19.2608                 8.3019

                    109                    110                    111
                      A                      A                      A
 Frequencies --   3170.7237              3180.9007              3198.0143
 Red. masses --      1.1063                 1.1039                 1.1054
 Frc consts  --      6.5530                 6.5807                 6.6607
 IR Inten    --     10.1748                10.5462                 7.6449

 - Thermochemistry -
 -------------------
 Temperature   298.150 Kelvin.  Pressure   1.00000 Atm.
 Atom     1 has atomic number  6 and mass  12.00000

 Molecular mass:   238.16813 amu.
 Principal axes and moments of inertia in atomic units:
                           1         2         3
     Eigenvalues --  2274.259855847.654097120.02133
           X            0.99991   0.01305   0.00319
           Y           -0.01307   0.99990   0.00598
           Z           -0.00311  -0.00602   0.99998
 This molecule is an asymmetric top.
 Rotational symmetry number  1.
 Warning -- assumption of classical behavior for rotation
           may cause significant error
 Rotational temperatures (Kelvin)      0.03808     0.01481     0.01216
 Rotational constants (GHZ):           0.79355     0.30863     0.25347
    2 imaginary frequencies ignored.
 Zero-point vibrational energy     897298.5 (Joules/Mol)
                                  214.45949 (Kcal/Mol)
 Warning -- explicit consideration of  25 degrees of freedom as
           vibrations may cause significant error
 Vibrational temperatures:     47.29    79.18    98.05   128.89   212.44
          (Kelvin)            220.03   261.87   288.40   323.43   351.39
                              359.02   383.18   389.19   404.65   420.23
                              437.28   466.17   485.51   499.92   548.59
                              568.91   597.72   683.65   759.74   877.52
                              988.55  1044.75  1097.58  1106.33  1111.74
                             1149.99  1173.99  1275.83  1327.95  1357.33
                             1363.54  1371.34  1377.51  1387.49  1422.55
                             1429.27  1460.75  1465.24  1467.36  1472.63
                             1486.91  1518.16  1528.13  1554.29  1570.86
                             1588.03  1689.47  1694.90  1731.72  1747.73
                             1768.48  1775.38  1780.88  1801.53  1839.28
                             1850.82  1854.81  1901.44  1933.91  1961.09
                             1966.29  1984.27  1995.24  2000.34  2023.79
                             2059.27  2065.69  2077.32  2086.56  2093.29
                             2096.37  2100.52  2113.35  2117.53  2121.19
                             2127.62  2140.98  2149.31  2155.84  2166.61
                             2497.11  2541.03  4382.24  4387.83  4394.43
                             4401.90  4404.35  4434.94  4450.09  4458.15
                             4461.36  4511.03  4513.86  4517.04  4519.20
                             4527.93  4535.80  4536.84  4551.19  4554.46
                             4556.67  4561.96  4576.61  4601.23

 Zero-point correction=                           0.341763 (Hartree/Particle)
 Thermal correction to Energy=                    0.358328
 Thermal correction to Enthalpy=                  0.359272
 Thermal correction to Gibbs Free Energy=         0.298070
 Sum of electronic and zero-point Energies=           -766.812270
 Sum of electronic and thermal Energies=              -766.795705
 Sum of electronic and thermal Enthalpies=            -766.794761
 Sum of electronic and thermal Free Energies=         -766.855964

                     E (Thermal)             CV                S
                      KCal/Mol        Cal/Mol-Kelvin    Cal/Mol-Kelvin
 Total                  224.854             64.465            128.811
 Electronic               0.000              0.000              0.000
 Translational            0.889              2.981             42.305
 Rotational               0.889              2.981             32.915
 Vibrational            223.077             58.503             53.592
 Vibration     1          0.594              1.983              5.648
 Vibration     2          0.596              1.976              4.628
 Vibration     3          0.598              1.969              4.206
 Vibration     4          0.602              1.957              3.669
 Vibration     5          0.617              1.905              2.702
 Vibration     6          0.619              1.899              2.635
 Vibration     7          0.630              1.864              2.308
 Vibration     8          0.638              1.839              2.129
 Vibration     9          0.649              1.803              1.920
 Vibration    10          0.660              1.772              1.772
 Vibration    11          0.662              1.764              1.734
 Vibration    12          0.672              1.735              1.620
 Vibration    13          0.674              1.728              1.593
 Vibration    14          0.681              1.708              1.526
 Vibration    15          0.687              1.688              1.462
 Vibration    16          0.695              1.666              1.395
 Vibration    17          0.709              1.627              1.290
 Vibration    18          0.718              1.601              1.224
 Vibration    19          0.725              1.580              1.178
 Vibration    20          0.751              1.510              1.034
 Vibration    21          0.762              1.480              0.980
 Vibration    22          0.779              1.437              0.908
 Vibration    23          0.832              1.305              0.723
 Vibration    24          0.883              1.188              0.592
 Vibration    25          0.969              1.011              0.433

 Normal termination of Gaussian 16 at Thu Nov  3 08:23:33 2022.
