 Gaussian 16, Revision A.03,
 Gaussian 16:  ES64L-G16RevA.03 25-Dec-2016

 ----------------------------------------------------------------------
 #p pop=(regular,nbo,savenbos) freq=noraman def2svp empiricaldispersion
 =gd3bj output=wfx pbe1pbe
 ----------------------------------------------------------------------

 --------
 08_lig_b
 --------
 Symbolic Z-matrix:
 Charge =  0 Multiplicity = 1

                         Standard orientation:
 ---------------------------------------------------------------------
 Center     Atomic      Atomic             Coordinates (Angstroms)
 Number     Number       Type             X           Y           Z
 ---------------------------------------------------------------------
      1          6           0       -2.520686   -2.211425   -0.044651
      2          6           0       -1.779022   -0.922031    0.353252
      3          6           0       -2.675299    0.252097    0.066053
      4          7           0       -2.472902    1.267492   -0.678793
      5          6           0       -3.655345    2.123305   -0.624210
      6          6           0       -4.545884    1.429021    0.413020
      7          8           0       -3.846492    0.202662    0.702550
      8          7           0        0.012689    0.074011   -1.100879
      9          6           0       -0.465906   -0.862117   -0.379144
     10          8           0        0.304156   -1.933166   -0.194403
     11          6           0        1.522867   -1.742755   -0.953534
     12          1           0        1.518909   -2.503119   -1.746862
     13          6           0        1.389512   -0.285294   -1.455283
     14          1           0        1.520388   -0.126535   -2.535832
     15          6           0        2.386352    0.485006   -0.625930
     16          6           0        3.113598   -0.374294    0.201865
     17          6           0        4.060444    0.141500    1.084253
     18          6           0        4.260901    1.521427    1.125374
     19          6           0        3.532142    2.374055    0.291382
     20          6           0        2.586465    1.863925   -0.597235
     21          6           0        2.749859   -1.814107   -0.046160
     22          6           0       -1.464050   -0.925745    1.864205
     23          1           0       -2.747877   -2.217526   -1.120842
     24          1           0       -3.462473   -2.285513    0.514057
     25          1           0       -1.893880   -3.082392    0.185521
     26          1           0       -4.109730    2.176384   -1.625808
     27          1           0       -3.332055    3.139656   -0.355525
     28          1           0       -5.548510    1.170575    0.046957
     29          1           0       -4.641140    1.990008    1.354490
     30          1           0        4.637437   -0.521035    1.734690
     31          1           0        4.997298    1.939798    1.815946
     32          1           0        3.702179    3.452181    0.334253
     33          1           0        2.015221    2.519705   -1.260222
     34          1           0        2.522268   -2.378181    0.871513
     35          1           0        3.568558   -2.349309   -0.555218
     36          1           0       -2.399037   -0.983626    2.436551
     37          1           0       -0.926551   -0.010094    2.151388
     38          1           0       -0.836502   -1.792872    2.107923
 ---------------------------------------------------------------------

 SCF Done:  E(RPBE1PBE) =  -878.875053246     A.U. after   14 cycles

 The electronic state is 1-A.
 Alpha  occ. eigenvalues --  -19.24286 -19.24101 -14.35204 -14.35146 -10.31016
 Alpha  occ. eigenvalues --  -10.30860 -10.29315 -10.28866 -10.26911 -10.26192
 Alpha  occ. eigenvalues --  -10.25509 -10.24281 -10.23960 -10.23654 -10.23599
 Alpha  occ. eigenvalues --  -10.23478 -10.23442 -10.23403 -10.23088 -10.23006
 Alpha  occ. eigenvalues --   -1.11673  -1.11389  -0.91564  -0.90458  -0.88617
 Alpha  occ. eigenvalues --   -0.85446  -0.82340  -0.77035  -0.76629  -0.73663
 Alpha  occ. eigenvalues --   -0.70905  -0.70478  -0.65422  -0.64525  -0.63759
 Alpha  occ. eigenvalues --   -0.60642  -0.59246  -0.58639  -0.54604  -0.53458
 Alpha  occ. eigenvalues --   -0.51630  -0.51557  -0.50290  -0.48294  -0.46937
 Alpha  occ. eigenvalues --   -0.46375  -0.45357  -0.44955  -0.44664  -0.43690
 Alpha  occ. eigenvalues --   -0.43327  -0.42484  -0.42207  -0.41793  -0.40852
 Alpha  occ. eigenvalues --   -0.39855  -0.38055  -0.37580  -0.37327  -0.36752
 Alpha  occ. eigenvalues --   -0.36437  -0.35873  -0.35319  -0.35074  -0.34696
 Alpha  occ. eigenvalues --   -0.34119  -0.28147  -0.26179  -0.25729  -0.24968
 Alpha  occ. eigenvalues --   -0.24434  -0.24002
 Alpha virt. eigenvalues --   -0.00811   0.00098   0.03794   0.03848   0.06769
 Alpha virt. eigenvalues --    0.07942   0.08327   0.09585   0.09965   0.11082
 Alpha virt. eigenvalues --    0.11770   0.12455   0.12726   0.12886   0.13377

 Mulliken charges:
               1
     1  C    0.013212
     2  C   -0.315117
     3  C    0.154424
     4  N   -0.228359
     5  C    0.055067
     6  C    0.145197
     7  O   -0.350669
     8  N   -0.181922
     9  C    0.186010
    10  O   -0.335137
    11  C    0.087368
    12  H    0.040090
    13  C    0.033771
    14  H    0.047344
    15  C   -0.015601
    16  C   -0.115883
    17  C   -0.041874
    18  C   -0.011426
    19  C   -0.024045
    20  C   -0.000751
    21  C    0.145828
    22  C    0.010099
    23  H    0.048490
    24  H    0.057314
    25  H    0.057249
    26  H    0.051301
    27  H    0.052456
    28  H    0.050116
    29  H    0.049009
    30  H    0.002123
    31  H    0.018695
    32  H    0.019774
    33  H    0.018180
    34  H    0.051842
    35  H    0.055989
    36  H    0.057812
    37  H    0.056722
    38  H    0.055302
 Sum of Mulliken charges =  -0.00000

 Dipole moment (field-independent basis, Debye):
    X=             -0.4005    Y=             -0.7039    Z=              0.7517  Tot=              1.1049
 Quadrupole moment (field-independent basis, Debye-Ang):
   XX=           -102.2040   YY=           -109.3527   ZZ=           -115.1662
   XY=             -6.6582   XZ=              0.6948   YZ=              2.9462

  Exact polarizability: 194.130   4.194 187.246  16.459  -5.678 143.867
 Approx polarizability: 241.288   7.105 289.064  26.525 -24.898 230.497

 Summary of Natural Population Analysis:

                                       Natural Population
                Natural  -----------------------------------------------
    Atom  No    Charge         Core      Valence    Rydberg      Total
 -----------------------------------------------------------------------
      C    1   -0.63885      1.99924     4.62628    0.01333     6.63885
      C    2   -0.17047      1.99880     4.15430    0.01737     6.17047
      C    3    0.61554      1.99902     3.33596    0.04948     5.38446
      N    4   -0.52143      1.99925     5.50665    0.01553     7.52143
      C    5   -0.27619      1.99920     4.26035    0.01664     6.27619
      C    6   -0.08983      1.99911     4.07418    0.01655     6.08983
      O    7   -0.58115      1.99965     6.57098    0.01053     8.58115
      N    8   -0.52226      1.99926     5.50625    0.01675     7.52226
      C    9    0.62525      1.99901     3.32470    0.05104     5.37475
      O   10   -0.58665      1.99965     6.57537    0.01164     8.58665
      C   11    0.11189      1.99890     3.86546    0.02376     5.88811
      H   12    0.22586      0.00000     0.77099    0.00315     0.77414
      C   13   -0.08472      1.99891     4.06076    0.02505     6.08472
      H   14    0.25090      0.00000     0.74588    0.00322     0.74910
      C   15   -0.04873      1.99881     4.03056    0.01936     6.04873
      C   16   -0.04196      1.99882     4.02564    0.01750     6.04196
      C   17   -0.22103      1.99887     4.20654    0.01562     6.22103
      C   18   -0.22511      1.99896     4.21101    0.01513     6.22511
      C   19   -0.22777      1.99896     4.21374    0.01507     6.22777
      C   20   -0.20225      1.99886     4.18684    0.01655     6.20225
      C   21   -0.47691      1.99906     4.46392    0.01393     6.47691
      C   22   -0.63555      1.99924     4.62342    0.01290     6.63555
      H   23    0.23307      0.00000     0.76459    0.00235     0.76693
      H   24    0.23898      0.00000     0.75836    0.00266     0.76102
      H   25    0.23877      0.00000     0.75853    0.00270     0.76123
      H   26    0.22235      0.00000     0.77413    0.00352     0.77765
      H   27    0.22840      0.00000     0.76865    0.00295     0.77160
      H   28    0.21003      0.00000     0.78716    0.00282     0.78997
      H   29    0.20507      0.00000     0.79170    0.00323     0.79493
      H   30    0.23000      0.00000     0.76723    0.00277     0.77000
      H   31    0.23007      0.00000     0.76722    0.00270     0.76993
      H   32    0.23033      0.00000     0.76697    0.00269     0.76967
      H   33    0.24202      0.00000     0.75498    0.00299     0.75798
      H   34    0.25469      0.00000     0.74176    0.00355     0.74531
      H   35    0.24570      0.00000     0.75094    0.00336     0.75430
      H   36    0.23813      0.00000     0.75913    0.00274     0.76187
      H   37    0.23725      0.00000     0.76033    0.00242     0.76275
      H   38    0.23654      0.00000     0.76067    0.00278     0.76346
 =======================================================================
   * Total *   -0.00000     39.98157   103.57211    0.44632   144.00000

 ******    2 imaginary frequencies (negative Signs) ******

                      1                      2                      3
                      A                      A                      A
 Frequencies --   -106.0456               -38.8125                33.8753
 Red. masses --      8.6219                 5.2242                 3.6817
 Frc consts  --      0.0571                 0.0046                 0.0025
 IR Inten    --      0.4106                 0.1637                 0.1391

                      4                      5                      6
                      A                      A                      A
 Frequencies --     61.1127                73.6028               102.3768
 Red. masses --      4.3715                 1.8326                 5.0093
 Frc consts  --      0.0096                 0.0058                 0.0309
 IR Inten    --      0.1418                 0.3824                 1.3497

                      7                      8                      9
                      A                      A                      A
 Frequencies --    127.5111               158.5176               179.1991
 Red. masses --      3.6760                 2.6778                 3.4285
 Frc consts  --      0.0352                 0.0396                 0.0649
 IR Inten    --      2.6660                 1.0965                 2.1025

                     10                     11                     12
                      A                      A                      A
 Frequencies --    221.8188               240.3737               254.5133
 Red. masses --      1.9590                 1.9853                 2.1486
 Frc consts  --      0.0568                 0.0676                 0.0820
 IR Inten    --      0.2100                 0.6885                 0.2490

                     13                     14                     15
                      A                      A                      A
 Frequencies --    267.9339               292.8639               305.3439
 Red. masses --      1.1172                 3.1341                 3.3437
 Frc consts  --      0.0473                 0.1584                 0.1837
 IR Inten    --      1.2949                 2.5328                 0.0909

                     16                     17                     18
                      A                      A                      A
 Frequencies --    326.5946               352.2641               368.0369
 Red. masses --      3.0572                 4.2245                 4.1052
 Frc consts  --      0.1921                 0.3089                 0.3276
 IR Inten    --      3.0120                 0.7030                 8.0532

                     19                     20                     21
                      A                      A                      A
 Frequencies --    418.5834               443.0187               464.9891
 Red. masses --      3.4534                 3.4311                 3.1923
 Frc consts  --      0.3565                 0.3968                 0.4067
 IR Inten    --      5.5818                 2.0062                 5.6441

                     22                     23                     24
                      A                      A                      A
 Frequencies --    527.1145               551.5423               609.2278
 Red. masses --      4.2815                 4.9995                 4.4641
 Frc consts  --      0.7009                 0.8961                 0.9762
 IR Inten    --      1.3836                 3.7385                 5.9268

                     25                     26                     27
                      A                      A                      A
 Frequencies --    616.3825               664.1832               726.1195
 Red. masses --      4.6337                 5.5376                 4.1861
 Frc consts  --      1.0372                 1.4393                 1.3004
 IR Inten    --      8.1243                 1.1732                 0.4926

                     28                     29                     30
                      A                      A                      A
 Frequencies --    735.5709               752.6564               754.1683
 Red. masses --      2.4619                 3.8965                 3.1343
 Frc consts  --      0.7848                 1.3005                 1.0503
 IR Inten    --      9.9912                 6.6823                 4.0521

                     31                     32                     33
                      A                      A                      A
 Frequencies --    761.4539               775.0956               790.5555
 Red. masses --      4.0485                 1.6546                 3.9749
 Frc consts  --      1.3830                 0.5857                 1.4637
 IR Inten    --     12.0399                27.4138                 1.1136

                     34                     35                     36
                      A                      A                      A
 Frequencies --    832.5083               852.7143               873.0506
 Red. masses --      1.4628                 3.8159                 1.7008
 Frc consts  --      0.5973                 1.6348                 0.7638
 IR Inten    --      1.6316                 1.2318                 3.0510

                     37                     38                     39
                      A                      A                      A
 Frequencies --    883.2048               910.4474               925.3836
 Red. masses --      4.4125                 1.9413                 3.1386
 Frc consts  --      2.0280                 0.9481                 1.5836
 IR Inten    --     16.9619                 2.4331                 0.3329

                     40                     41                     42
                      A                      A                      A
 Frequencies --    936.5906               956.9297               971.5868
 Red. masses --      2.1487                 1.4470                 3.8649
 Frc consts  --      1.1105                 0.7807                 2.1495
 IR Inten    --      1.1006                 1.9915                22.5061

                     43                     44                     45
                      A                      A                      A
 Frequencies --    979.3514              1003.0634              1015.9621
 Red. masses --      1.5782                 3.4201                 3.0509
 Frc consts  --      0.8919                 2.0274                 1.8554
 IR Inten    --      0.6533                11.2659                 6.5587

                     46                     47                     48
                      A                      A                      A
 Frequencies --   1018.1727              1022.3394              1028.1161
 Red. masses --      1.3233                 1.3339                 5.0654
 Frc consts  --      0.8083                 0.8214                 3.1546
 IR Inten    --      0.2678                 0.0715                31.7244

                     49                     50                     51
                      A                      A                      A
 Frequencies --   1038.6709              1044.9294              1052.0076
 Red. masses --      3.8235                 1.9994                 2.7400
 Frc consts  --      2.4303                 1.2862                 1.7866
 IR Inten    --     44.2255                 3.6380                 3.4696

                     52                     53                     54
                      A                      A                      A
 Frequencies --   1057.2467              1071.6966              1108.2621
 Red. masses --      1.9370                 3.0166                 1.6785
 Frc consts  --      1.2757                 2.0413                 1.2147
 IR Inten    --      4.4914                 6.0489                 0.1343

                     55                     56                     57
                      A                      A                      A
 Frequencies --   1120.2914              1167.1063              1170.4554
 Red. masses --      1.7932                 1.0977                 3.4031
 Frc consts  --      1.3260                 0.8810                 2.7468
 IR Inten    --      0.8870                 1.0750                42.3695

                     58                     59                     60
                      A                      A                      A
 Frequencies --   1172.1396              1187.0214              1194.1576
 Red. masses --      3.0024                 1.2949                 2.0270
 Frc consts  --      2.4304                 1.0750                 1.7031
 IR Inten    --    247.8734                34.6954                 2.3799

                     61                     62                     63
                      A                      A                      A
 Frequencies --   1208.3708              1221.1914              1225.7799
 Red. masses --      1.1930                 2.1197                 1.7875
 Frc consts  --      1.0264                 1.8625                 1.5824
 IR Inten    --      3.5702                 0.7010                 7.2858

                     64                     65                     66
                      A                      A                      A
 Frequencies --   1238.4845              1240.5273              1251.3048
 Red. masses --      1.1590                 1.4183                 1.6668
 Frc consts  --      1.0474                 1.2860                 1.5376
 IR Inten    --      5.4451                 9.6112                15.3568

                     67                     68                     69
                      A                      A                      A
 Frequencies --   1277.1299              1309.2567              1312.5865
 Red. masses --      1.7115                 1.7494                 1.7095
 Frc consts  --      1.6448                 1.7668                 1.7353
 IR Inten    --     29.4391                 4.4437                 4.6219

                     70                     71                     72
                      A                      A                      A
 Frequencies --   1336.1741              1339.5555              1353.4520
 Red. masses --      2.4596                 1.7781                 1.5898
 Frc consts  --      2.5873                 1.8798                 1.7158
 IR Inten    --      6.5678                 0.7889                 1.1669

                     73                     74                     75
                      A                      A                      A
 Frequencies --   1361.6698              1377.2493              1408.4953
 Red. masses --      1.2373                 1.3257                 5.6222
 Frc consts  --      1.3517                 1.4816                 6.5716
 IR Inten    --      7.9657                13.3613                 3.4807

                     76                     77                     78
                      A                      A                      A
 Frequencies --   1422.8716              1434.5217              1440.5848
 Red. masses --      1.9475                 1.3516                 1.6686
 Frc consts  --      2.3231                 1.6387                 2.0402
 IR Inten    --     14.5494                32.4900                20.6171

                     79                     80                     81
                      A                      A                      A
 Frequencies --   1451.9972              1458.8507              1469.4830
 Red. masses --      1.0470                 1.0417                 1.0984
 Frc consts  --      1.3005                 1.3062                 1.3975
 IR Inten    --      2.1354                 0.0847                 1.6083

                     82                     83                     84
                      A                      A                      A
 Frequencies --   1474.5293              1496.2171              1505.4431
 Red. masses --      1.1183                 1.1713                 1.6286
 Frc consts  --      1.4325                 1.5449                 2.1747
 IR Inten    --      6.6914                 7.5224                33.6277

                     85                     86                     87
                      A                      A                      A
 Frequencies --   1507.9085              1528.1608              1674.5843
 Red. masses --      2.3855                 3.1631                 7.3421
 Frc consts  --      3.1957                 4.3521                12.1307
 IR Inten    --     36.4288                11.8165                 0.2432

                     88                     89                     90
                      A                      A                      A
 Frequencies --   1695.4914              1739.1962              1765.4741
 Red. masses --      7.3569                11.0439                11.0813
 Frc consts  --     12.4604                19.6819                20.3499
 IR Inten    --      1.7458                39.2754               235.1920

                     91                     92                     93
                      A                      A                      A
 Frequencies --   3070.8652              3072.1792              3074.4789
 Red. masses --      1.0647                 1.0349                 1.0361
 Frc consts  --      5.9158                 5.7550                 5.7703
 IR Inten    --     14.5502                12.5808                10.6047

                     94                     95                     96
                      A                      A                      A
 Frequencies --   3080.1596              3093.5802              3110.6503
 Red. masses --      1.0617                 1.0629                 1.0888
 Frc consts  --      5.9346                 5.9931                 6.2071
 IR Inten    --     32.6872                45.0507                 9.8875

                     97                     98                     99
                      A                      A                      A
 Frequencies --   3126.8524              3131.0032              3132.5113
 Red. masses --      1.0946                 1.0989                 1.1089
 Frc consts  --      6.3055                 6.3470                 6.4109
 IR Inten    --     20.7255                22.1580                 6.8104

                    100                    101                    102
                      A                      A                      A
 Frequencies --   3163.0204              3174.6752              3175.5630
 Red. masses --      1.1110                 1.1046                 1.1042
 Frc consts  --      6.5490                 6.5593                 6.5605
 IR Inten    --     21.8704                 5.2207                11.0912

                    103                    104                    105
                      A                      A                      A
 Frequencies --   3190.2760              3193.7360              3199.0475
 Red. masses --      1.1058                 1.1054                 1.0870
 Frc consts  --      6.6311                 6.6430                 6.5543
 IR Inten    --      3.5163                 9.4649                 1.2280

                    106                    107                    108
                      A                      A                      A
 Frequencies --   3206.4605              3215.4930              3227.2537
 Red. masses --      1.0908                 1.0958                 1.0998
 Frc consts  --      6.6076                 6.6753                 6.7486
 IR Inten    --      1.7370                11.3466                13.4129

 - Thermochemistry -
 -------------------
 Temperature   298.150 Kelvin.  Pressure   1.00000 Atm.
 Atom     1 has atomic number  6 and mass  12.00000

 Molecular mass:   270.13683 amu.
 Principal axes and moments of inertia in atomic units:
                           1         2         3
     Eigenvalues --  2689.420178329.689439592.58054
           X            1.00000  -0.00289   0.00109
           Y            0.00290   0.99996  -0.00805
           Z           -0.00107   0.00806   0.99997
 This molecule is an asymmetric top.
 Rotational symmetry number  1.
 Warning -- assumption of classical behavior for rotation
           may cause significant error
 Rotational temperatures (Kelvin)      0.03221     0.01040     0.00903
 Rotational constants (GHZ):           0.67105     0.21666     0.18814
    2 imaginary frequencies ignored.
 Zero-point vibrational energy     835677.4 (Joules/Mol)
                                  199.73170 (Kcal/Mol)
 Warning -- explicit consideration of  23 degrees of freedom as
           vibrations may cause significant error
 Vibrational temperatures:     48.74    87.93   105.90   147.30   183.46
          (Kelvin)            228.07   257.83   319.15   345.84   366.19
                              385.50   421.37   439.32   469.90   506.83
                              529.52   602.25   637.41   669.02   758.40
                              793.55   876.54   886.84   955.61  1044.72
                             1058.32  1082.90  1085.08  1095.56  1115.19
                             1137.43  1197.79  1226.87  1256.13  1270.73
                             1309.93  1331.42  1347.55  1376.81  1397.90
                             1409.07  1443.18  1461.74  1464.92  1470.92
                             1479.23  1494.42  1503.42  1513.60  1521.14
                             1541.93  1594.54  1611.85  1679.21  1684.02
                             1686.45  1707.86  1718.13  1738.58  1757.02
                             1763.62  1781.90  1784.84  1800.35  1837.51
                             1883.73  1888.52  1922.46  1927.32  1947.32
                             1959.14  1981.55  2026.51  2047.19  2063.96
                             2072.68  2089.10  2098.96  2114.26  2121.52
                             2152.72  2166.00  2169.54  2198.68  2409.35
                             2439.43  2502.32  2540.12  4418.29  4420.18
                             4423.49  4431.66  4450.97  4475.53  4498.84
                             4504.82  4506.99  4550.88  4567.65  4568.93
                             4590.10  4595.07  4602.72  4613.38  4626.38
                             4643.30

 Zero-point correction=                           0.318293 (Hartree/Particle)
 Thermal correction to Energy=                    0.333643
 Thermal correction to Enthalpy=                  0.334588
 Thermal correction to Gibbs Free Energy=         0.275278
 Sum of electronic and zero-point Energies=           -878.556761
 Sum of electronic and thermal Energies=              -878.541410
 Sum of electronic and thermal Enthalpies=            -878.540466
 Sum of electronic and thermal Free Energies=         -878.599775

                     E (Thermal)             CV                S
                      KCal/Mol        Cal/Mol-Kelvin    Cal/Mol-Kelvin
 Total                  209.364             62.367            124.828
 Electronic               0.000              0.000              0.000
 Translational            0.889              2.981             42.680
 Rotational               0.889              2.981             33.729
 Vibrational            207.587             56.405             48.418
 Vibration     1          0.594              1.983              5.588
 Vibration     2          0.597              1.973              4.421
 Vibration     3          0.599              1.966              4.055
 Vibration     4          0.604              1.947              3.409
 Vibration     5          0.611              1.926              2.983
 Vibration     6          0.621              1.893              2.567
 Vibration     7          0.629              1.868              2.337
 Vibration     8          0.648              1.808              1.944
 Vibration     9          0.657              1.779              1.800
 Vibration    10          0.665              1.755              1.699
 Vibration    11          0.673              1.732              1.609
 Vibration    12          0.688              1.687              1.457
 Vibration    13          0.696              1.664              1.387
 Vibration    14          0.710              1.622              1.277
 Vibration    15          0.729              1.571              1.156
 Vibration    16          0.741              1.538              1.088
 Vibration    17          0.781              1.430              0.897
 Vibration    18          0.803              1.376              0.817
 Vibration    19          0.822              1.328              0.752
 Vibration    20          0.882              1.190              0.594
 Vibration    21          0.907              1.136              0.541
 Vibration    22          0.968              1.012              0.434
 Vibration    23          0.976              0.997              0.422

 Normal termination of Gaussian 16 at Thu Nov  3 09:36:47 2022.
