 Gaussian 16, Revision A.03,
 Gaussian 16:  ES64L-G16RevA.03 25-Dec-2016

 ----------------------------------------------------------------------
 #p pop=(regular,nbo,savenbos) freq=noraman def2svp empiricaldispersion
 =gd3bj output=wfx pbe1pbe
 ----------------------------------------------------------------------

 --------
 09_lig_b
 --------
 Symbolic Z-matrix:
 Charge =  0 Multiplicity = 1

                         Standard orientation:
 ---------------------------------------------------------------------
 Center     Atomic      Atomic             Coordinates (Angstroms)
 Number     Number       Type             X           Y           Z
 ---------------------------------------------------------------------
      1          6           0       -3.339173    2.075497   -0.845797
      2          6           0       -2.818325    1.234687    0.302660
      3          1           0       -2.892736    1.825536    1.228879
      4          6           0       -3.457471   -0.160654    0.431307
      5          8           0       -2.351381   -1.075071    0.330888
      6          6           0       -1.248297   -0.347454    0.153020
      7          7           0       -1.394464    0.918294    0.128076
      8          7           0        1.393153    0.920036   -0.128840
      9          6           0        1.248477   -0.345891   -0.154062
     10          6           0        0.000865   -1.172778    0.001612
     11          6           0        0.163476   -2.049487    1.259370
     12          6           0       -0.159987   -2.057542   -1.250583
     13          8           0        2.352048   -1.072072   -0.334505
     14          6           0        3.455949   -0.155989   -0.443917
     15          6           0        2.816655    1.238173   -0.303101
     16          1           0        2.890142    1.836807   -1.224304
     17          6           0        3.338140    2.069374    0.852183
     18          1           0       -3.194504    1.564839   -1.810869
     19          1           0       -2.808579    3.038337   -0.855686
     20          1           0       -4.412561    2.278079   -0.711851
     21          1           0       -4.160216   -0.389252   -0.384132
     22          1           0       -3.955443   -0.334898    1.395114
     23          1           0        0.275071   -1.425756    2.158483
     24          1           0        1.054753   -2.681850    1.155960
     25          1           0       -0.720899   -2.687875    1.382102
     26          1           0       -0.272809   -1.439724   -2.153620
     27          1           0       -1.050019   -2.690970   -1.143314
     28          1           0        0.725664   -2.694875   -1.369417
     29          1           0        3.942769   -0.325958   -1.414248
     30          1           0        4.168403   -0.387039    0.362218
     31          1           0        4.411109    2.274342    0.718551
     32          1           0        3.195397    1.550007    1.812901
     33          1           0        2.806450    3.031470    0.871356
 ---------------------------------------------------------------------

 SCF Done:  E(RPBE1PBE) =  -688.676869543     A.U. after   13 cycles

 The electronic state is 1-A.
 Alpha  occ. eigenvalues --  -19.24035 -19.24030 -14.34919 -14.34915 -10.30814
 Alpha  occ. eigenvalues --  -10.30812 -10.28528 -10.28528 -10.26829 -10.25883
 Alpha  occ. eigenvalues --  -10.25882 -10.23038 -10.23028 -10.22313 -10.22313
 Alpha  occ. eigenvalues --   -1.11487  -1.11267  -0.91084  -0.90157  -0.85692
 Alpha  occ. eigenvalues --   -0.79316  -0.77628  -0.71617  -0.70603  -0.70475
 Alpha  occ. eigenvalues --   -0.65049  -0.60825  -0.60804  -0.59833  -0.54567
 Alpha  occ. eigenvalues --   -0.52222  -0.51295  -0.50942  -0.48127  -0.47084
 Alpha  occ. eigenvalues --   -0.45824  -0.44724  -0.44241  -0.43783  -0.42549
 Alpha  occ. eigenvalues --   -0.41506  -0.40627  -0.40169  -0.39917  -0.37778
 Alpha  occ. eigenvalues --   -0.37716  -0.37673  -0.36437  -0.36314  -0.35033
 Alpha  occ. eigenvalues --   -0.34652  -0.34402  -0.34315  -0.27974  -0.25081
 Alpha  occ. eigenvalues --   -0.24403  -0.23914
 Alpha virt. eigenvalues --    0.03736   0.03745   0.06693   0.07798   0.08945
 Alpha virt. eigenvalues --    0.10281   0.10576   0.11215   0.11977   0.13145
 Alpha virt. eigenvalues --    0.13286   0.13690   0.13806   0.14608   0.14676

 Mulliken charges:
               1
     1  C   -0.006951
     2  C   -0.111722
     3  H    0.045466
     4  C    0.231636
     5  O   -0.352324
     6  C    0.161522
     7  N   -0.202317
     8  N   -0.202401
     9  C    0.161688
    10  C   -0.308311
    11  C    0.010881
    12  C    0.010953
    13  O   -0.352279
    14  C    0.231536
    15  C   -0.111909
    16  H    0.045422
    17  C   -0.006782
    18  H    0.036310
    19  H    0.059237
    20  H    0.036931
    21  H    0.035299
    22  H    0.045645
    23  H    0.049462
    24  H    0.056616
    25  H    0.058518
    26  H    0.049262
    27  H    0.056632
    28  H    0.058509
    29  H    0.045597
    30  H    0.035417
    31  H    0.036926
    32  H    0.036258
    33  H    0.059272
 Sum of Mulliken charges =  -0.00000

 Dipole moment (field-independent basis, Debye):
    X=              0.0001    Y=             -0.6933    Z=             -0.0020  Tot=              0.6933
 Quadrupole moment (field-independent basis, Debye-Ang):
   XX=            -73.9723   YY=            -92.6705   ZZ=            -88.2274
   XY=              0.0110   XZ=             -1.9114   YZ=             -0.0082

  Exact polarizability: 149.689   0.002 137.500  -0.798   0.027 106.837
 Approx polarizability: 177.399  -0.011 203.754  -2.249   0.028 150.887

 Summary of Natural Population Analysis:

                                       Natural Population
                Natural  -----------------------------------------------
    Atom  No    Charge         Core      Valence    Rydberg      Total
 -----------------------------------------------------------------------
      C    1   -0.65261      1.99920     4.64315    0.01026     6.65261
      C    2   -0.08766      1.99904     4.06917    0.01945     6.08766
      H    3    0.23235      0.00000     0.76343    0.00422     0.76765
      C    4   -0.08307      1.99904     4.06514    0.01888     6.08307
      O    5   -0.58036      1.99965     6.56999    0.01073     8.58036
      C    6    0.61849      1.99902     3.33227    0.05022     5.38151
      N    7   -0.53041      1.99925     5.51423    0.01693     7.53041
      N    8   -0.53044      1.99925     5.51426    0.01693     7.53044
      C    9    0.61845      1.99902     3.33231    0.05022     5.38155
      C   10   -0.17047      1.99881     4.15431    0.01735     6.17047
      C   11   -0.63700      1.99924     4.62469    0.01307     6.63700
      C   12   -0.63717      1.99924     4.62484    0.01310     6.63717
      O   13   -0.58033      1.99965     6.56995    0.01073     8.58033
      C   14   -0.08311      1.99904     4.06517    0.01889     6.08311
      C   15   -0.08768      1.99904     4.06918    0.01946     6.08768
      H   16    0.23251      0.00000     0.76330    0.00419     0.76749
      C   17   -0.65270      1.99920     4.64323    0.01027     6.65270
      H   18    0.22205      0.00000     0.77481    0.00314     0.77795
      H   19    0.23844      0.00000     0.75854    0.00302     0.76156
      H   20    0.21857      0.00000     0.77875    0.00268     0.78143
      H   21    0.20461      0.00000     0.79211    0.00328     0.79539
      H   22    0.21152      0.00000     0.78566    0.00282     0.78848
      H   23    0.23340      0.00000     0.76420    0.00241     0.76660
      H   24    0.23796      0.00000     0.75931    0.00273     0.76204
      H   25    0.23902      0.00000     0.75828    0.00270     0.76098
      H   26    0.23331      0.00000     0.76429    0.00240     0.76669
      H   27    0.23803      0.00000     0.75924    0.00273     0.76197
      H   28    0.23908      0.00000     0.75822    0.00269     0.76092
      H   29    0.21134      0.00000     0.78583    0.00283     0.78866
      H   30    0.20483      0.00000     0.79190    0.00326     0.79517
      H   31    0.21857      0.00000     0.77874    0.00269     0.78143
      H   32    0.22202      0.00000     0.77486    0.00312     0.77798
      H   33    0.23845      0.00000     0.75853    0.00302     0.76155
 =======================================================================
   * Total *   -0.00000     29.98769    83.66189    0.35042   114.00000

 ******    2 imaginary frequencies (negative Signs) ******

                      1                      2                      3
                      A                      A                      A
 Frequencies --   -105.3396               -82.9130                26.1672
 Red. masses --      7.4304                 5.8234                 2.4170
 Frc consts  --      0.0486                 0.0236                 0.0010
 IR Inten    --      0.0519                 0.5836                 0.0022

                      4                      5                      6
                      A                      A                      A
 Frequencies --     30.9482                99.8323               105.2226
 Red. masses --      2.5401                 3.9195                 2.9046
 Frc consts  --      0.0014                 0.0230                 0.0189
 IR Inten    --      0.0005                 0.9650                 4.1477

                      7                      8                      9
                      A                      A                      A
 Frequencies --    143.6050               213.2204               224.5632
 Red. masses --      2.6378                 2.5531                 1.2154
 Frc consts  --      0.0321                 0.0684                 0.0361
 IR Inten    --      0.2960                 0.9354                 0.0635

                     10                     11                     12
                      A                      A                      A
 Frequencies --    252.0865               258.2717               270.1214
 Red. masses --      1.0846                 1.1543                 1.0842
 Frc consts  --      0.0406                 0.0454                 0.0466
 IR Inten    --      0.0084                 0.0268                 0.4190

                     13                     14                     15
                      A                      A                      A
 Frequencies --    273.5814               289.1946               304.5885
 Red. masses --      2.0733                 2.9072                 2.7909
 Frc consts  --      0.0914                 0.1433                 0.1526
 IR Inten    --      0.0157                 0.2161                 0.2467

                     16                     17                     18
                      A                      A                      A
 Frequencies --    325.5442               342.0197               370.7679
 Red. masses --      3.3851                 2.8548                 2.9180
 Frc consts  --      0.2114                 0.1968                 0.2363
 IR Inten    --      2.3976                 5.2383                 3.1305

                     19                     20                     21
                      A                      A                      A
 Frequencies --    374.9826               471.2297               508.5578
 Red. masses --      2.9468                 3.0926                 3.4151
 Frc consts  --      0.2441                 0.4046                 0.5204
 IR Inten    --      0.2444                 0.2651                14.5210

                     22                     23                     24
                      A                      A                      A
 Frequencies --    600.7842               707.0820               710.2706
 Red. masses --      3.7613                 3.5304                 4.3071
 Frc consts  --      0.7999                 1.0400                 1.2802
 IR Inten    --     11.0478                 1.3670                 6.7735

                     25                     26                     27
                      A                      A                      A
 Frequencies --    745.3976               760.3764               768.0334
 Red. masses --      5.2666                 5.5696                 2.7775
 Frc consts  --      1.7241                 1.8973                 0.9653
 IR Inten    --      0.9622                 3.6026                 0.2917

                     28                     29                     30
                      A                      A                      A
 Frequencies --    878.1928               880.8906               900.3024
 Red. masses --      3.2013                 3.3110                 2.7348
 Frc consts  --      1.4547                 1.5138                 1.3060
 IR Inten    --      1.8037                 7.3950                 0.7094

                     31                     32                     33
                      A                      A                      A
 Frequencies --    928.7139               929.7628               930.3812
 Red. masses --      1.6733                 1.2458                 1.4815
 Frc consts  --      0.8503                 0.6345                 0.7556
 IR Inten    --      0.1107                 0.6054                 2.4055

                     34                     35                     36
                      A                      A                      A
 Frequencies --    956.5630               963.8853               997.1917
 Red. masses --      1.4390                 2.3615                 4.8847
 Frc consts  --      0.7758                 1.2927                 2.8619
 IR Inten    --      1.8135                 1.0597                41.5573

                     37                     38                     39
                      A                      A                      A
 Frequencies --   1015.7811              1022.3528              1033.0771
 Red. masses --      3.1109                 1.3410                 3.9013
 Frc consts  --      1.8912                 0.8258                 2.4531
 IR Inten    --     24.6040                 0.2613                28.2374

                     40                     41                     42
                      A                      A                      A
 Frequencies --   1039.7636              1103.2956              1110.2029
 Red. masses --      7.9175                 2.1682                 2.1264
 Frc consts  --      5.0432                 1.5550                 1.5442
 IR Inten    --      3.9178                45.2766                 0.6029

                     43                     44                     45
                      A                      A                      A
 Frequencies --   1128.5120              1131.5288              1164.7701
 Red. masses --      1.8055                 1.7522                 2.3491
 Frc consts  --      1.3548                 1.3218                 1.8777
 IR Inten    --      9.5779                 0.7147                28.9335

                     46                     47                     48
                      A                      A                      A
 Frequencies --   1167.7808              1172.7688              1178.0753
 Red. masses --      1.9813                 3.1977                 2.8351
 Frc consts  --      1.5919                 2.5913                 2.3182
 IR Inten    --      0.0600                60.3436               209.8745

                     49                     50                     51
                      A                      A                      A
 Frequencies --   1222.8088              1228.3462              1229.0218
 Red. masses --      2.5785                 1.1804                 1.1810
 Frc consts  --      2.2716                 1.0493                 1.0511
 IR Inten    --      2.3475                 0.4003                 3.6318

                     52                     53                     54
                      A                      A                      A
 Frequencies --   1268.4093              1278.2830              1307.3000
 Red. masses --      1.6809                 1.4236                 1.4848
 Frc consts  --      1.5934                 1.3705                 1.4951
 IR Inten    --     54.3571                11.6036                 2.5300

                     55                     56                     57
                      A                      A                      A
 Frequencies --   1328.8393              1359.2033              1361.1591
 Red. masses --      1.3780                 1.4916                 1.2375
 Frc consts  --      1.4337                 1.6235                 1.3508
 IR Inten    --      0.7102                24.0650                 8.1825

                     58                     59                     60
                      A                      A                      A
 Frequencies --   1371.3735              1379.2326              1392.1151
 Red. masses --      1.4561                 1.2896                 1.5928
 Frc consts  --      1.6134                 1.4454                 1.8187
 IR Inten    --      1.2322                 3.6058                14.9156

                     61                     62                     63
                      A                      A                      A
 Frequencies --   1392.4412              1424.6070              1437.1669
 Red. masses --      1.5855                 2.0395                 1.9957
 Frc consts  --      1.8112                 2.4388                 2.4287
 IR Inten    --     15.6607                 8.3324                48.4767

                     64                     65                     66
                      A                      A                      A
 Frequencies --   1452.3188              1458.7838              1459.4947
 Red. masses --      1.0456                 1.0436                 1.0619
 Frc consts  --      1.2993                 1.3084                 1.3327
 IR Inten    --      2.8216                 0.7568                 5.0261

                     67                     68                     69
                      A                      A                      A
 Frequencies --   1459.6656              1463.5299              1463.5668
 Red. masses --      1.0602                 1.0467                 1.0466
 Frc consts  --      1.3309                 1.3209                 1.3208
 IR Inten    --      5.1130                 3.3827                 8.4955

                     70                     71                     72
                      A                      A                      A
 Frequencies --   1473.4599              1488.8564              1494.8429
 Red. masses --      1.0879                 1.0888                 1.1843
 Frc consts  --      1.3916                 1.4220                 1.5592
 IR Inten    --      7.6912                 1.1212                 2.9788

                     73                     74                     75
                      A                      A                      A
 Frequencies --   1506.4032              1744.0406              1769.8896
 Red. masses --      1.5422                11.1612                11.3335
 Frc consts  --      2.0619                20.0021                20.9174
 IR Inten    --     73.6459                30.6452               279.3998

                     76                     77                     78
                      A                      A                      A
 Frequencies --   3055.1922              3055.2700              3072.2767
 Red. masses --      1.0360                 1.0360                 1.0351
 Frc consts  --      5.6975                 5.6978                 5.7562
 IR Inten    --     21.4107                13.2757                16.8598

                     79                     80                     81
                      A                      A                      A
 Frequencies --   3073.7843              3085.1749              3085.5819
 Red. masses --      1.0361                 1.0701                 1.0692
 Frc consts  --      5.7676                 6.0010                 5.9976
 IR Inten    --      6.8388                29.8931                27.5678

                     82                     83                     84
                      A                      A                      A
 Frequencies --   3088.5818              3089.4723              3154.3470
 Red. masses --      1.0784                 1.0789                 1.1098
 Frc consts  --      6.0608                 6.0676                 6.5058
 IR Inten    --     34.4139                18.8694                10.1684

                     85                     86                     87
                      A                      A                      A
 Frequencies --   3154.4693              3155.6550              3155.7750
 Red. masses --      1.1091                 1.1063                 1.1068
 Frc consts  --      6.5026                 6.4909                 6.4941
 IR Inten    --      8.6157                25.7497                37.9739

                     88                     89                     90
                      A                      A                      A
 Frequencies --   3172.1003              3172.1493              3173.9987
 Red. masses --      1.1051                 1.1052                 1.1046
 Frc consts  --      6.5516                 6.5521                 6.5562
 IR Inten    --      8.1496                11.2047                 6.2764

                     91                     92                     93
                      A                      A                      A
 Frequencies --   3174.9428              3191.3287              3193.0838
 Red. masses --      1.1040                 1.1060                 1.1052
 Frc consts  --      6.5566                 6.6366                 6.6393
 IR Inten    --     12.1342                 0.0494                11.8920

 - Thermochemistry -
 -------------------
 Temperature   298.150 Kelvin.  Pressure   1.00000 Atm.
 Atom     1 has atomic number  6 and mass  12.00000

 Molecular mass:   210.13683 amu.
 Principal axes and moments of inertia in atomic units:
                           1         2         3
     Eigenvalues --  1766.315944554.188795615.72333
           X            0.99996  -0.00005   0.00852
           Y            0.00005   1.00000   0.00001
           Z           -0.00852  -0.00001   0.99996
 This molecule is an asymmetric top.
 Rotational symmetry number  1.
 Warning -- assumption of classical behavior for rotation
           may cause significant error
 Rotational temperatures (Kelvin)      0.04904     0.01902     0.01542
 Rotational constants (GHZ):           1.02175     0.39628     0.32137
    2 imaginary frequencies ignored.
 Zero-point vibrational energy     749631.4 (Joules/Mol)
                                  179.16621 (Kcal/Mol)
 Warning -- explicit consideration of  20 degrees of freedom as
           vibrations may cause significant error
 Vibrational temperatures:     37.65    44.53   143.64   151.39   206.62
          (Kelvin)            306.78   323.10   362.70   371.60   388.64
                              393.62   416.09   438.23   468.39   492.09
                              533.45   539.52   677.99   731.70   864.39
                             1017.33  1021.92  1072.46  1094.01  1105.03
                             1263.52  1267.41  1295.33  1336.21  1337.72
                             1338.61  1376.28  1386.82  1434.74  1461.48
                             1470.94  1486.37  1495.99  1587.40  1597.33
                             1623.68  1628.02  1675.84  1680.18  1687.35
                             1694.99  1759.35  1767.32  1768.29  1824.96
                             1839.16  1880.91  1911.90  1955.59  1958.40
                             1973.10  1984.41  2002.94  2003.41  2049.69
                             2067.76  2089.56  2098.86  2099.89  2100.13
                             2105.69  2105.75  2119.98  2142.13  2150.75
                             2167.38  2509.29  2546.48  4395.74  4395.85
                             4420.32  4422.49  4438.88  4439.46  4443.78
                             4445.06  4538.40  4538.58  4540.28  4540.46
                             4563.94  4564.02  4566.68  4568.03  4591.61
                             4594.14

 Zero-point correction=                           0.285520 (Hartree/Particle)
 Thermal correction to Energy=                    0.299511
 Thermal correction to Enthalpy=                  0.300456
 Thermal correction to Gibbs Free Energy=         0.243879
 Sum of electronic and zero-point Energies=           -688.391350
 Sum of electronic and thermal Energies=              -688.377358
 Sum of electronic and thermal Enthalpies=            -688.376414
 Sum of electronic and thermal Free Energies=         -688.432991

                     E (Thermal)             CV                S
                      KCal/Mol        Cal/Mol-Kelvin    Cal/Mol-Kelvin
 Total                  187.946             53.765            119.076
 Electronic               0.000              0.000              0.000
 Translational            0.889              2.981             41.932
 Rotational               0.889              2.981             32.180
 Vibrational            186.169             47.804             44.965
 Vibration     1          0.593              1.985              6.101
 Vibration     2          0.594              1.984              5.768
 Vibration     3          0.604              1.949              3.458
 Vibration     4          0.605              1.945              3.355
 Vibration     5          0.616              1.910              2.755
 Vibration     6          0.644              1.821              2.016
 Vibration     7          0.649              1.804              1.922
 Vibration     8          0.664              1.759              1.716
 Vibration     9          0.667              1.749              1.673
 Vibration    10          0.674              1.728              1.595
 Vibration    11          0.676              1.722              1.573
 Vibration    12          0.686              1.694              1.479
 Vibration    13          0.696              1.665              1.392
 Vibration    14          0.710              1.624              1.282
 Vibration    15          0.721              1.591              1.203
 Vibration    16          0.743              1.532              1.077
 Vibration    17          0.746              1.523              1.059
 Vibration    18          0.828              1.314              0.734
 Vibration    19          0.864              1.231              0.637
 Vibration    20          0.959              1.030              0.448

 Normal termination of Gaussian 16 at Thu Nov  3 09:29:05 2022.
