 Gaussian 16, Revision A.03,
 Gaussian 16:  ES64L-G16RevA.03 25-Dec-2016

 ----------------------------------------------------------------------
 #p pop=(regular,nbo,savenbos) freq=noraman def2svp empiricaldispersion
 =gd3bj output=wfx pbe1pbe
 ----------------------------------------------------------------------

 --------
 12_lig_b
 --------
 Symbolic Z-matrix:
 Charge =  0 Multiplicity = 1

                         Standard orientation:
 ---------------------------------------------------------------------
 Center     Atomic      Atomic             Coordinates (Angstroms)
 Number     Number       Type             X           Y           Z
 ---------------------------------------------------------------------
      1          6           0       -1.528648   -0.253815   -2.091868
      2          6           0       -1.843898    0.598737   -0.835901
      3          6           0       -0.524838    0.874290   -0.153597
      4          7           0        0.105589    0.140880    0.680395
      5          6           0        1.432625    0.734551    0.923647
      6          6           0        1.298990    2.097060    0.189927
      7          8           0        0.083711    1.983886   -0.561770
      8          6           0        1.651083    0.909895    2.422979
      9          6           0        2.533461   -0.114773    0.292399
     10          6           0        2.286826   -1.336531   -0.336531
     11          6           0        3.333976   -2.063722   -0.901777
     12          6           0        4.638725   -1.583017   -0.851731
     13          6           0        4.894583   -0.362006   -0.228523
     14          6           0        3.850204    0.361570    0.338892
     15          7           0       -2.445238   -1.027169    0.963787
     16          6           0       -2.762155   -0.237032    0.012640
     17          8           0       -4.038823   -0.235294   -0.358229
     18          6           0       -4.739666   -1.154436    0.501009
     19          6           0       -3.621533   -1.811568    1.321948
     20          6           0       -2.530189    1.912004   -1.226696
     21          1           0       -1.155564   -1.248205   -1.799940
     22          1           0       -0.777163    0.261097   -2.706785
     23          1           0       -2.445905   -0.379762   -2.683963
     24          1           0        2.119033    2.302013   -0.508704
     25          1           0        1.184712    2.940818    0.888120
     26          1           0        0.842205    1.520454    2.852779
     27          1           0        2.610324    1.410066    2.619117
     28          1           0        1.651410   -0.078365    2.904635
     29          1           0        1.281343   -1.757249   -0.386748
     30          1           0        3.114650   -3.023244   -1.375293
     31          1           0        5.456343   -2.157917   -1.292807
     32          1           0        5.914001    0.028094   -0.178602
     33          1           0        4.071223    1.314369    0.829211
     34          1           0       -5.298797   -1.853251   -0.134826
     35          1           0       -5.447911   -0.571753    1.108448
     36          1           0       -3.419710   -2.854886    1.030494
     37          1           0       -3.798322   -1.775819    2.406366
     38          1           0       -1.883577    2.480693   -1.905525
     39          1           0       -2.737523    2.536023   -0.345186
     40          1           0       -3.479602    1.694870   -1.730970
 ---------------------------------------------------------------------

 SCF Done:  E(RPBE1PBE) =  -880.062948903     A.U. after   14 cycles

 The electronic state is 1-A.
 Alpha  occ. eigenvalues --  -19.24586 -19.24503 -14.35330 -14.35279 -10.31464
 Alpha  occ. eigenvalues --  -10.31171 -10.29076 -10.28618 -10.27329 -10.27169
 Alpha  occ. eigenvalues --  -10.25757 -10.24040 -10.23746 -10.23546 -10.23494
 Alpha  occ. eigenvalues --  -10.23275 -10.23207 -10.22842 -10.22787 -10.22402
 Alpha  occ. eigenvalues --   -1.12110  -1.11866  -0.91864  -0.90664  -0.87234
 Alpha  occ. eigenvalues --   -0.85665  -0.80281  -0.76973  -0.75627  -0.74510
 Alpha  occ. eigenvalues --   -0.71506  -0.70405  -0.65927  -0.64311  -0.63347
 Alpha  occ. eigenvalues --   -0.61714  -0.59616  -0.58268  -0.54903  -0.53461
 Alpha  occ. eigenvalues --   -0.52182  -0.51739  -0.50332  -0.48633  -0.47707
 Alpha  occ. eigenvalues --   -0.46595  -0.45747  -0.44670  -0.44494  -0.44253
 Alpha  occ. eigenvalues --   -0.43712  -0.42742  -0.42025  -0.41506  -0.40940
 Alpha  occ. eigenvalues --   -0.40305  -0.39442  -0.37947  -0.37665  -0.37321
 Alpha  occ. eigenvalues --   -0.37027  -0.36454  -0.35965  -0.35505  -0.34903
 Alpha  occ. eigenvalues --   -0.34572  -0.33862  -0.28308  -0.26205  -0.25840
 Alpha  occ. eigenvalues --   -0.25215  -0.24764  -0.24319
 Alpha virt. eigenvalues --   -0.00268   0.00315   0.02691   0.03684   0.06303
 Alpha virt. eigenvalues --    0.07230   0.08287   0.08892   0.10586   0.11174
 Alpha virt. eigenvalues --    0.11612   0.11847   0.12431   0.12995   0.13144

 Mulliken charges:
               1
     1  C    0.023801
     2  C   -0.360323
     3  C    0.203145
     4  N   -0.179341
     5  C   -0.302311
     6  C    0.320161
     7  O   -0.338634
     8  C    0.069963
     9  C    0.023378
    10  C   -0.014106
    11  C   -0.019466
    12  C   -0.011479
    13  C   -0.022549
    14  C   -0.040272
    15  N   -0.238885
    16  C    0.161525
    17  O   -0.343904
    18  C    0.141246
    19  C    0.054936
    20  C    0.043946
    21  H    0.065110
    22  H    0.056247
    23  H    0.051885
    24  H    0.047166
    25  H    0.030417
    26  H    0.038236
    27  H    0.031582
    28  H    0.060013
    29  H    0.029438
    30  H    0.016592
    31  H    0.018373
    32  H    0.016483
    33  H    0.009458
    34  H    0.050222
    35  H    0.051267
    36  H    0.052265
    37  H    0.052465
    38  H    0.053967
    39  H    0.043281
    40  H    0.054702
 Sum of Mulliken charges =  -0.00000

 Dipole moment (field-independent basis, Debye):
    X=             -1.0739    Y=              0.4766    Z=             -0.5030  Tot=              1.2780
 Quadrupole moment (field-independent basis, Debye-Ang):
   XX=           -101.7854   YY=           -112.4770   ZZ=           -118.1865
   XY=              7.7547   XZ=             -2.0142   YZ=              5.0016

  Exact polarizability: 219.003  -0.852 170.773  -3.862   9.674 148.440
 Approx polarizability: 280.223   0.590 263.327   1.076  10.864 223.680

 Summary of Natural Population Analysis:

                                       Natural Population
                Natural  -----------------------------------------------
    Atom  No    Charge         Core      Valence    Rydberg      Total
 -----------------------------------------------------------------------
      C    1   -0.62536      1.99923     4.61434    0.01180     6.62536
      C    2   -0.17066      1.99880     4.15417    0.01769     6.17066
      C    3    0.63686      1.99900     3.31309    0.05105     5.36314
      N    4   -0.54795      1.99927     5.53096    0.01772     7.54795
      C    5    0.08821      1.99884     3.88810    0.02485     5.91179
      C    6   -0.06556      1.99898     4.04572    0.02085     6.06556
      O    7   -0.56990      1.99964     6.55926    0.01100     8.56990
      C    8   -0.63868      1.99916     4.62736    0.01216     6.63868
      C    9   -0.05145      1.99882     4.03020    0.02242     6.05145
      C   10   -0.21854      1.99887     4.20372    0.01595     6.21854
      C   11   -0.21839      1.99895     4.20407    0.01538     6.21839
      C   12   -0.23518      1.99894     4.22111    0.01513     6.23518
      C   13   -0.22140      1.99894     4.20683    0.01563     6.22140
      C   14   -0.23663      1.99889     4.22260    0.01514     6.23663
      N   15   -0.53326      1.99925     5.51842    0.01560     7.53326
      C   16    0.61799      1.99900     3.33341    0.04959     5.38201
      O   17   -0.57575      1.99964     6.56552    0.01059     8.57575
      C   18   -0.08959      1.99911     4.07377    0.01671     6.08959
      C   19   -0.27377      1.99920     4.25783    0.01675     6.27377
      C   20   -0.64680      1.99925     4.63353    0.01402     6.64680
      H   21    0.24063      0.00000     0.75668    0.00269     0.75937
      H   22    0.23491      0.00000     0.76235    0.00274     0.76509
      H   23    0.23271      0.00000     0.76454    0.00275     0.76729
      H   24    0.22087      0.00000     0.77659    0.00254     0.77913
      H   25    0.20660      0.00000     0.79024    0.00316     0.79340
      H   26    0.23054      0.00000     0.76670    0.00276     0.76946
      H   27    0.22023      0.00000     0.77749    0.00228     0.77977
      H   28    0.24467      0.00000     0.75250    0.00284     0.75533
      H   29    0.25087      0.00000     0.74533    0.00380     0.74913
      H   30    0.22888      0.00000     0.76838    0.00274     0.77112
      H   31    0.22910      0.00000     0.76817    0.00273     0.77090
      H   32    0.22938      0.00000     0.76784    0.00277     0.77062
      H   33    0.22581      0.00000     0.77131    0.00288     0.77419
      H   34    0.21040      0.00000     0.78680    0.00280     0.78960
      H   35    0.20530      0.00000     0.79145    0.00325     0.79470
      H   36    0.22226      0.00000     0.77410    0.00364     0.77774
      H   37    0.22733      0.00000     0.76981    0.00287     0.77267
      H   38    0.24121      0.00000     0.75620    0.00259     0.75879
      H   39    0.23326      0.00000     0.76437    0.00237     0.76674
      H   40    0.24086      0.00000     0.75653    0.00260     0.75914
 =======================================================================
   * Total *   -0.00000     39.98178   105.57140    0.44682   146.00000

 ******    2 imaginary frequencies (negative Signs) ******

                      1                      2                      3
                      A                      A                      A
 Frequencies --   -117.0473               -51.2532                25.0426
 Red. masses --      8.5045                 5.3283                 3.7963
 Frc consts  --      0.0686                 0.0082                 0.0014
 IR Inten    --      0.5469                 0.2990                 0.0323

                      4                      5                      6
                      A                      A                      A
 Frequencies --     46.9379                78.2984                86.1888
 Red. masses --      3.7989                 5.1255                 1.8145
 Frc consts  --      0.0049                 0.0185                 0.0079
 IR Inten    --      0.0589                 0.4107                 0.4132

                      7                      8                      9
                      A                      A                      A
 Frequencies --    104.3750               129.3323               154.8444
 Red. masses --      4.0124                 3.0240                 2.8262
 Frc consts  --      0.0258                 0.0298                 0.0399
 IR Inten    --      1.3658                 0.5867                 1.8814

                     10                     11                     12
                      A                      A                      A
 Frequencies --    189.7653               218.1235               240.6029
 Red. masses --      3.3794                 1.8251                 1.4164
 Frc consts  --      0.0717                 0.0512                 0.0483
 IR Inten    --      2.0903                 0.0118                 0.2401

                     13                     14                     15
                      A                      A                      A
 Frequencies --    255.2382               260.1875               274.5032
 Red. masses --      1.6905                 2.3285                 1.5814
 Frc consts  --      0.0649                 0.0929                 0.0702
 IR Inten    --      0.2412                 0.1160                 0.3750

                     16                     17                     18
                      A                      A                      A
 Frequencies --    285.8741               309.7011               319.5616
 Red. masses --      1.4906                 2.3781                 2.8752
 Frc consts  --      0.0718                 0.1344                 0.1730
 IR Inten    --      0.5207                 0.1258                 4.4631

                     19                     20                     21
                      A                      A                      A
 Frequencies --    325.7080               343.1658               381.7265
 Red. masses --      3.0972                 3.1712                 4.4590
 Frc consts  --      0.1936                 0.2200                 0.3828
 IR Inten    --      0.3348                 0.6105                 3.3318

                     22                     23                     24
                      A                      A                      A
 Frequencies --    407.8433               416.9919               473.0654
 Red. masses --      3.8028                 2.8895                 3.8302
 Frc consts  --      0.3727                 0.2960                 0.5050
 IR Inten    --      9.2894                 0.0938                 1.9334

                     25                     26                     27
                      A                      A                      A
 Frequencies --    533.1075               571.5528               608.8520
 Red. masses --      3.9141                 3.4623                 3.8932
 Frc consts  --      0.6554                 0.6664                 0.8503
 IR Inten    --      2.7643                 7.6050                14.4327

                     28                     29                     30
                      A                      A                      A
 Frequencies --    631.1415               671.1789               724.0806
 Red. masses --      6.2924                 4.9623                 3.4113
 Frc consts  --      1.4768                 1.3171                 1.0538
 IR Inten    --      0.2558                10.6174                 9.4683

                     31                     32                     33
                      A                      A                      A
 Frequencies --    726.5464               749.7503               760.0830
 Red. masses --      1.6851                 3.7656                 4.2905
 Frc consts  --      0.5241                 1.2472                 1.4604
 IR Inten    --     30.0856                 5.3047                 3.6216

                     34                     35                     36
                      A                      A                      A
 Frequencies --    769.9571               785.9170               805.2608
 Red. masses --      3.1451                 2.5372                 3.2319
 Frc consts  --      1.0986                 0.9234                 1.2347
 IR Inten    --      5.5286                10.6871                 0.9085

                     37                     38                     39
                      A                      A                      A
 Frequencies --    843.2249               867.3118               904.1779
 Red. masses --      1.5430                 1.2509                 2.7064
 Frc consts  --      0.6464                 0.5544                 1.3036
 IR Inten    --      3.4943                 0.0704                 3.1103

                     40                     41                     42
                      A                      A                      A
 Frequencies --    913.8001               942.9174               948.0394
 Red. masses --      2.8319                 1.9676                 1.4110
 Frc consts  --      1.3933                 1.0307                 0.7472
 IR Inten    --      5.4740                 0.8145                 1.3639

                     43                     44                     45
                      A                      A                      A
 Frequencies --    959.9736               971.6824               989.7665
 Red. masses --      1.7469                 2.9582                 1.6224
 Frc consts  --      0.9485                 1.6456                 0.9364
 IR Inten    --      2.5160                22.8343                 7.1832

                     46                     47                     48
                      A                      A                      A
 Frequencies --   1007.0943              1007.7661              1016.3822
 Red. masses --      1.4031                 2.7453                 3.7230
 Frc consts  --      0.8385                 1.6427                 2.2660
 IR Inten    --      1.9841                16.3361                 5.1430

                     49                     50                     51
                      A                      A                      A
 Frequencies --   1016.9511              1024.2858              1027.4328
 Red. masses --      3.3127                 1.4690                 1.3459
 Frc consts  --      2.0185                 0.9080                 0.8371
 IR Inten    --      6.4359                 3.7246                 0.2767

                     52                     53                     54
                      A                      A                      A
 Frequencies --   1030.0032              1049.8242              1059.2434
 Red. masses --      4.5967                 5.6843                 3.0228
 Frc consts  --      2.8732                 3.6911                 1.9983
 IR Inten    --     30.9856                11.8971                30.9051

                     55                     56                     57
                      A                      A                      A
 Frequencies --   1060.5251              1100.7351              1112.1477
 Red. masses --      2.5290                 1.6147                 1.6693
 Frc consts  --      1.6758                 1.1527                 1.2165
 IR Inten    --      5.9604                 9.0526                 0.4949

                     58                     59                     60
                      A                      A                      A
 Frequencies --   1119.9777              1165.8692              1170.0155
 Red. masses --      1.9462                 1.7697                 1.6647
 Frc consts  --      1.4383                 1.4173                 1.3427
 IR Inten    --      6.4654                 9.8824                47.0016

                     61                     62                     63
                      A                      A                      A
 Frequencies --   1170.9322              1174.5093              1191.2312
 Red. masses --      2.3535                 2.5596                 1.1448
 Frc consts  --      1.9012                 2.0803                 0.9572
 IR Inten    --      1.0624               212.9063                 0.4689

                     64                     65                     66
                      A                      A                      A
 Frequencies --   1201.7233              1210.3223              1217.5553
 Red. masses --      3.1876                 1.1916                 1.2589
 Frc consts  --      2.7122                 1.0285                 1.0995
 IR Inten    --     37.6239                 3.5103                 3.8911

                     67                     68                     69
                      A                      A                      A
 Frequencies --   1232.1902              1239.9394              1281.1510
 Red. masses --      1.8979                 1.3756                 1.6993
 Frc consts  --      1.6977                 1.2460                 1.6433
 IR Inten    --      5.4965                 4.5342                38.9643

                     70                     71                     72
                      A                      A                      A
 Frequencies --   1300.8386              1322.8186              1326.8983
 Red. masses --      2.7309                 1.3753                 1.9905
 Frc consts  --      2.7227                 1.4179                 2.0649
 IR Inten    --     21.1775                 0.8383                37.4876

                     73                     74                     75
                      A                      A                      A
 Frequencies --   1353.5591              1361.8725              1380.4947
 Red. masses --      1.6082                 1.2456                 1.3301
 Frc consts  --      1.7360                 1.3611                 1.4935
 IR Inten    --      1.9389                 8.4426                10.0562

                     76                     77                     78
                      A                      A                      A
 Frequencies --   1387.3570              1401.3035              1428.9787
 Red. masses --      1.3372                 6.9131                 2.0562
 Frc consts  --      1.5165                 7.9982                 2.4739
 IR Inten    --     16.3071                 0.7337                14.0765

                     79                     80                     81
                      A                      A                      A
 Frequencies --   1438.1797              1451.1912              1453.0601
 Red. masses --      1.8345                 1.0656                 1.0668
 Frc consts  --      2.2356                 1.3222                 1.3271
 IR Inten    --     47.7573                 2.1838                 2.1314

                     82                     83                     84
                      A                      A                      A
 Frequencies --   1456.3184              1461.5625              1465.8785
 Red. masses --      1.0468                 1.0566                 1.0987
 Frc consts  --      1.3080                 1.3298                 1.3909
 IR Inten    --      0.5775                 7.9084                 1.4325

                     85                     86                     87
                      A                      A                      A
 Frequencies --   1471.8677              1485.4074              1487.4021
 Red. masses --      1.0928                 1.7809                 1.3604
 Frc consts  --      1.3949                 2.3152                 1.7733
 IR Inten    --      8.3738                 6.3619                 4.1565

                     88                     89                     90
                      A                      A                      A
 Frequencies --   1496.6155              1507.2853              1536.6591
 Red. masses --      1.2372                 1.5387                 2.5694
 Frc consts  --      1.6327                 2.0597                 3.5747
 IR Inten    --     16.4088                87.8530                16.3458

                     91                     92                     93
                      A                      A                      A
 Frequencies --   1670.0955              1693.3363              1728.3700
 Red. masses --      6.5706                 6.5912                11.0855
 Frc consts  --     10.7979                11.1352                19.5109
 IR Inten    --      3.5978                 6.5195                61.4170

                     94                     95                     96
                      A                      A                      A
 Frequencies --   1759.0428              3058.3813              3059.2281
 Red. masses --     10.9804                 1.0340                 1.0352
 Frc consts  --     20.0180                 5.6983                 5.7083
 IR Inten    --    261.6352                10.6624                11.0895

                     97                     98                     99
                      A                      A                      A
 Frequencies --   3071.9823              3081.3207              3083.3954
 Red. masses --      1.0627                 1.0373                 1.0641
 Frc consts  --      5.9090                 5.8028                 5.9604
 IR Inten    --     32.9547                11.8185                31.4581

                    100                    101                    102
                      A                      A                      A
 Frequencies --   3094.5505              3138.9327              3161.4982
 Red. masses --      1.0624                 1.1080                 1.1046
 Frc consts  --      5.9944                 6.4322                 6.5050
 IR Inten    --     42.9199                10.0420                16.9343

                    103                    104                    105
                      A                      A                      A
 Frequencies --   3165.5295              3166.4623              3174.4424
 Red. masses --      1.1058                 1.1111                 1.1073
 Frc consts  --      6.5286                 6.5640                 6.5742
 IR Inten    --      8.6401                19.6844                16.9209

                    106                    107                    108
                      A                      A                      A
 Frequencies --   3175.3403              3177.5385              3180.0864
 Red. masses --      1.1058                 1.1057                 1.1031
 Frc consts  --      6.5691                 6.5777                 6.5730
 IR Inten    --      9.6457                 5.1767                 9.6991

                    109                    110                    111
                      A                      A                      A
 Frequencies --   3189.3674              3201.1951              3205.2557
 Red. masses --      1.0887                 1.1054                 1.0880
 Frc consts  --      6.5248                 6.6739                 6.5856
 IR Inten    --      5.8926                 6.7668                 0.7932

                    112                    113                    114
                      A                      A                      A
 Frequencies --   3215.8586              3226.5708              3237.5752
 Red. masses --      1.0935                 1.0984                 1.0962
 Frc consts  --      6.6627                 6.7373                 6.7698
 IR Inten    --     13.7309                12.5781                 3.8247

 - Thermochemistry -
 -------------------
 Temperature   298.150 Kelvin.  Pressure   1.00000 Atm.
 Atom     1 has atomic number  6 and mass  12.00000

 Molecular mass:   272.15248 amu.
 Principal axes and moments of inertia in atomic units:
                           1         2         3
     Eigenvalues --  2619.627559313.062489821.25286
           X            0.99998   0.00482   0.00399
           Y           -0.00494   0.99951   0.03078
           Z           -0.00384  -0.03079   0.99952
 This molecule is an asymmetric top.
 Rotational symmetry number  1.
 Warning -- assumption of classical behavior for rotation
           may cause significant error
 Rotational temperatures (Kelvin)      0.03306     0.00930     0.00882
 Rotational constants (GHZ):           0.68893     0.19379     0.18376
    2 imaginary frequencies ignored.
 Zero-point vibrational energy     889926.6 (Joules/Mol)
                                  212.69757 (Kcal/Mol)
 Warning -- explicit consideration of  25 degrees of freedom as
           vibrations may cause significant error
 Vibrational temperatures:     36.03    67.53   112.65   124.01   150.17
          (Kelvin)            186.08   222.79   273.03   313.83   346.17
                              367.23   374.35   394.95   411.31   445.59
                              459.78   468.62   493.74   549.22   586.80
                              599.96   680.64   767.02   822.34   876.00
                              908.07   965.68  1041.79  1045.34  1078.72
                             1093.59  1107.80  1130.76  1158.59  1213.21
                             1247.87  1300.91  1314.75  1356.65  1364.02
                             1381.19  1398.03  1424.05  1448.98  1449.95
                             1462.35  1463.17  1473.72  1478.25  1481.94
                             1510.46  1524.01  1525.86  1583.71  1600.13
                             1611.40  1677.43  1683.39  1684.71  1689.86
                             1713.92  1729.01  1741.38  1751.79  1772.85
                             1784.00  1843.29  1871.62  1903.24  1909.11
                             1947.47  1959.43  1986.22  1996.10  2016.16
                             2055.98  2069.22  2087.94  2090.63  2095.32
                             2102.86  2109.07  2117.69  2137.17  2140.04
                             2153.30  2168.65  2210.91  2402.89  2436.33
                             2486.74  2530.87  4400.33  4401.55  4419.90
                             4433.33  4436.32  4452.37  4516.22  4548.69
                             4554.49  4555.83  4567.31  4568.61  4571.77
                             4575.43  4588.79  4605.81  4611.65  4626.90
                             4642.32  4658.15

 Zero-point correction=                           0.338955 (Hartree/Particle)
 Thermal correction to Energy=                    0.355898
 Thermal correction to Enthalpy=                  0.356842
 Thermal correction to Gibbs Free Energy=         0.293934
 Sum of electronic and zero-point Energies=           -879.723994
 Sum of electronic and thermal Energies=              -879.707051
 Sum of electronic and thermal Enthalpies=            -879.706107
 Sum of electronic and thermal Free Energies=         -879.769015

                     E (Thermal)             CV                S
                      KCal/Mol        Cal/Mol-Kelvin    Cal/Mol-Kelvin
 Total                  223.329             67.283            132.402
 Electronic               0.000              0.000              0.000
 Translational            0.889              2.981             42.702
 Rotational               0.889              2.981             33.838
 Vibrational            221.552             61.322             55.862
 Vibration     1          0.593              1.985              6.188
 Vibration     2          0.595              1.979              4.942
 Vibration     3          0.600              1.964              3.933
 Vibration     4          0.601              1.959              3.745
 Vibration     5          0.605              1.946              3.371
 Vibration     6          0.612              1.924              2.956
 Vibration     7          0.620              1.897              2.612
 Vibration     8          0.633              1.854              2.230
 Vibration     9          0.646              1.813              1.975
 Vibration    10          0.658              1.778              1.798
 Vibration    11          0.666              1.754              1.694
 Vibration    12          0.668              1.745              1.661
 Vibration    13          0.677              1.720              1.568
 Vibration    14          0.684              1.700              1.498
 Vibration    15          0.699              1.655              1.364
 Vibration    16          0.705              1.636              1.312
 Vibration    17          0.710              1.624              1.281
 Vibration    18          0.722              1.589              1.197
 Vibration    19          0.751              1.509              1.032
 Vibration    20          0.772              1.453              0.934
 Vibration    21          0.780              1.433              0.902
 Vibration    22          0.830              1.310              0.729
 Vibration    23          0.888              1.177              0.580
 Vibration    24          0.928              1.093              0.501
 Vibration    25          0.968              1.013              0.435

 Normal termination of Gaussian 16 at Thu Nov  3 08:26:10 2022.
