 Gaussian 16, Revision A.03,
 Gaussian 16:  ES64L-G16RevA.03 25-Dec-2016

 ----------------------------------------------------------------------
 #p pop=(regular,nbo,savenbos) freq=noraman def2svp empiricaldispersion
 =gd3bj output=wfx pbe1pbe
 ----------------------------------------------------------------------

 --------
 13_lig_b
 --------
 Symbolic Z-matrix:
 Charge =  0 Multiplicity = 1

                         Standard orientation:
 ---------------------------------------------------------------------
 Center     Atomic      Atomic             Coordinates (Angstroms)
 Number     Number       Type             X           Y           Z
 ---------------------------------------------------------------------
      1          6           0       -3.743775   -2.726482    1.139806
      2          6           0       -3.536744   -1.827418   -0.060041
      3          1           0       -3.406452   -2.441854   -0.968335
      4          6           0       -4.599285   -0.736157   -0.268380
      5          8           0       -3.836221    0.451085   -0.556553
      6          6           0       -2.563900    0.167916   -0.290185
      7          7           0       -2.310971   -1.034400    0.048516
      8          7           0        0.275280   -0.053212    0.523384
      9          6           0       -0.274823    1.049582    0.189500
     10          6           0       -1.569305    1.262889   -0.562173
     11          6           0       -1.232083    1.164156   -2.072118
     12          6           0       -2.169548    2.630499   -0.223693
     13          8           0        0.402555    2.164222    0.447113
     14          6           0        1.599593    1.784517    1.139033
     15          6           0        1.597605    0.229099    1.106313
     16          6           0        1.668180   -0.376207    2.505534
     17          6           0        2.716634   -0.296113    0.212291
     18          6           0        4.042869   -0.041756    0.585445
     19          6           0        5.104431   -0.484710   -0.197603
     20          6           0        4.856113   -1.197489   -1.370263
     21          6           0        3.541779   -1.453629   -1.748317
     22          6           0        2.477809   -1.004571   -0.966586
     23          1           0       -3.839110   -2.135434    2.063837
     24          1           0       -2.885242   -3.405772    1.251168
     25          1           0       -4.649333   -3.338742    1.017186
     26          1           0       -5.190674   -0.543220    0.641402
     27          1           0       -5.276892   -0.919913   -1.111488
     28          1           0       -0.913145    0.141865   -2.330268
     29          1           0       -0.433557    1.878085   -2.318780
     30          1           0       -2.125643    1.415714   -2.660716
     31          1           0       -2.391373    2.718979    0.849701
     32          1           0       -3.102151    2.771054   -0.783637
     33          1           0       -1.463327    3.424198   -0.495096
     34          1           0        1.539475    2.186322    2.161872
     35          1           0        2.455064    2.230372    0.616477
     36          1           0        0.852409    0.021116    3.128980
     37          1           0        2.626747   -0.134201    2.986450
     38          1           0        1.564691   -1.468505    2.431277
     39          1           0        4.257106    0.509882    1.505624
     40          1           0        6.130988   -0.276780    0.113592
     41          1           0        5.686642   -1.554006   -1.984000
     42          1           0        3.326510   -2.018749   -2.657884
     43          1           0        1.463127   -1.234354   -1.296513
 ---------------------------------------------------------------------

 SCF Done:  E(RPBE1PBE) =  -919.307839428     A.U. after   14 cycles

 The electronic state is 1-A.
 Alpha  occ. eigenvalues --  -19.24603 -19.24422 -14.35323 -14.34962 -10.31489
 Alpha  occ. eigenvalues --  -10.31077 -10.28775 -10.28640 -10.27346 -10.27156
 Alpha  occ. eigenvalues --  -10.26105 -10.24014 -10.23735 -10.23532 -10.23480
 Alpha  occ. eigenvalues --  -10.23260 -10.23190 -10.22814 -10.22773 -10.22458
 Alpha  occ. eigenvalues --  -10.22427  -1.12075  -1.11763  -0.91913  -0.90800
 Alpha  occ. eigenvalues --   -0.87254  -0.85737  -0.80414  -0.78359  -0.75613
 Alpha  occ. eigenvalues --   -0.74594  -0.71697  -0.71415  -0.70111  -0.65505
 Alpha  occ. eigenvalues --   -0.63418  -0.61735  -0.60891  -0.59661  -0.58263
 Alpha  occ. eigenvalues --   -0.55034  -0.53556  -0.52363  -0.51109  -0.50368
 Alpha  occ. eigenvalues --   -0.48500  -0.47671  -0.46682  -0.45729  -0.44982
 Alpha  occ. eigenvalues --   -0.44695  -0.44330  -0.43923  -0.42725  -0.42423
 Alpha  occ. eigenvalues --   -0.41992  -0.40898  -0.40432  -0.40063  -0.39398
 Alpha  occ. eigenvalues --   -0.38050  -0.37759  -0.37528  -0.36992  -0.36469
 Alpha  occ. eigenvalues --   -0.35849  -0.35441  -0.34990  -0.34794  -0.34521
 Alpha  occ. eigenvalues --   -0.33798  -0.28287  -0.26192  -0.25773  -0.25255
 Alpha  occ. eigenvalues --   -0.24720  -0.24175
 Alpha virt. eigenvalues --   -0.00244   0.00332   0.02567   0.03654   0.06458
 Alpha virt. eigenvalues --    0.07290   0.08035   0.08740   0.10348   0.10576
 Alpha virt. eigenvalues --    0.11429   0.11696   0.12304   0.12834   0.13359

 Mulliken charges:
               1
     1  C   -0.005328
     2  C   -0.111179
     3  H    0.044707
     4  C    0.231346
     5  O   -0.346286
     6  C    0.169634
     7  N   -0.215554
     8  N   -0.178070
     9  C    0.202461
    10  C   -0.365180
    11  C    0.025142
    12  C    0.048440
    13  O   -0.339270
    14  C    0.321208
    15  C   -0.302898
    16  C    0.069278
    17  C    0.022808
    18  C   -0.039569
    19  C   -0.022695
    20  C   -0.011501
    21  C   -0.019360
    22  C   -0.015121
    23  H    0.036235
    24  H    0.060359
    25  H    0.037453
    26  H    0.035275
    27  H    0.046894
    28  H    0.066483
    29  H    0.055037
    30  H    0.050944
    31  H    0.042943
    32  H    0.054247
    33  H    0.053035
    34  H    0.030912
    35  H    0.047811
    36  H    0.037014
    37  H    0.031955
    38  H    0.060122
    39  H    0.008930
    40  H    0.016478
    41  H    0.018290
    42  H    0.016667
    43  H    0.029904
 Sum of Mulliken charges =  -0.00000

 Dipole moment (field-independent basis, Debye):
    X=             -0.8900    Y=              0.6525    Z=             -0.0585  Tot=              1.1051
 Quadrupole moment (field-independent basis, Debye-Ang):
   XX=           -109.3018   YY=           -125.2143   ZZ=           -118.7352
   XY=              6.0998   XZ=              2.8549   YZ=              4.2846

  Exact polarizability: 230.001  -3.254 171.266  -1.696  11.723 172.058
 Approx polarizability: 295.272  -6.667 259.739   4.695  24.169 256.793

 Summary of Natural Population Analysis:

                                       Natural Population
                Natural  -----------------------------------------------
    Atom  No    Charge         Core      Valence    Rydberg      Total
 -----------------------------------------------------------------------
      C    1   -0.65306      1.99920     4.64368    0.01018     6.65306
      C    2   -0.08668      1.99905     4.06800    0.01963     6.08668
      H    3    0.22862      0.00000     0.76652    0.00486     0.77138
      C    4   -0.08177      1.99903     4.06364    0.01910     6.08177
      O    5   -0.57465      1.99965     6.56435    0.01066     8.57465
      C    6    0.62267      1.99899     3.32805    0.05029     5.37733
      N    7   -0.54354      1.99924     5.52729    0.01701     7.54354
      N    8   -0.54872      1.99927     5.53169    0.01776     7.54872
      C    9    0.63711      1.99900     3.31294    0.05094     5.36289
      C   10   -0.17031      1.99880     4.15384    0.01767     6.17031
      C   11   -0.62497      1.99923     4.61401    0.01173     6.62497
      C   12   -0.64736      1.99925     4.63407    0.01404     6.64736
      O   13   -0.56962      1.99964     6.55899    0.01099     8.56962
      C   14   -0.06587      1.99898     4.04621    0.02068     6.06587
      C   15    0.08839      1.99884     3.88802    0.02475     5.91161
      C   16   -0.63900      1.99916     4.62763    0.01220     6.63900
      C   17   -0.05098      1.99882     4.03007    0.02209     6.05098
      C   18   -0.23660      1.99889     4.22257    0.01514     6.23660
      C   19   -0.22152      1.99894     4.20695    0.01562     6.22152
      C   20   -0.23541      1.99894     4.22134    0.01512     6.23541
      C   21   -0.21834      1.99895     4.20402    0.01537     6.21834
      C   22   -0.21807      1.99887     4.20331    0.01589     6.21807
      H   23    0.22201      0.00000     0.77452    0.00347     0.77799
      H   24    0.24075      0.00000     0.75624    0.00302     0.75925
      H   25    0.21951      0.00000     0.77790    0.00259     0.78049
      H   26    0.20222      0.00000     0.79415    0.00363     0.79778
      H   27    0.21487      0.00000     0.78249    0.00264     0.78513
      H   28    0.24192      0.00000     0.75531    0.00277     0.75808
      H   29    0.23408      0.00000     0.76320    0.00272     0.76592
      H   30    0.23199      0.00000     0.76527    0.00274     0.76801
      H   31    0.23346      0.00000     0.76415    0.00238     0.76654
      H   32    0.24087      0.00000     0.75652    0.00261     0.75913
      H   33    0.24102      0.00000     0.75638    0.00259     0.75898
      H   34    0.20757      0.00000     0.78935    0.00308     0.79243
      H   35    0.22012      0.00000     0.77731    0.00258     0.77988
      H   36    0.22988      0.00000     0.76743    0.00268     0.77012
      H   37    0.22011      0.00000     0.77760    0.00230     0.77989
      H   38    0.24479      0.00000     0.75236    0.00285     0.75521
      H   39    0.22578      0.00000     0.77135    0.00287     0.77422
      H   40    0.22932      0.00000     0.76791    0.00277     0.77068
      H   41    0.22905      0.00000     0.76822    0.00273     0.77095
      H   42    0.22892      0.00000     0.76834    0.00274     0.77108
      H   43    0.25144      0.00000     0.74481    0.00376     0.74856
 =======================================================================
   * Total *   -0.00000     41.98076   111.54800    0.47125   154.00000

 ******    2 imaginary frequencies (negative Signs) ******

                      1                      2                      3
                      A                      A                      A
 Frequencies --   -112.8335               -59.9510                15.4439
 Red. masses --      6.7207                 5.5799                 3.7483
 Frc consts  --      0.0504                 0.0118                 0.0005
 IR Inten    --      0.5030                 0.2753                 0.0034

                      4                      5                      6
                      A                      A                      A
 Frequencies --     44.9809                65.9712                71.3608
 Red. masses --      3.7688                 3.0227                 4.1308
 Frc consts  --      0.0045                 0.0078                 0.0124
 IR Inten    --      0.0524                 0.2392                 0.2983

                      7                      8                      9
                      A                      A                      A
 Frequencies --     97.6978               122.2657               142.6812
 Red. masses --      3.6493                 3.0420                 2.7287
 Frc consts  --      0.0205                 0.0268                 0.0327
 IR Inten    --      0.7679                 0.6336                 1.7388

                     10                     11                     12
                      A                      A                      A
 Frequencies --    180.1100               202.8343               233.8640
 Red. masses --      3.4093                 2.6625                 1.2435
 Frc consts  --      0.0652                 0.0645                 0.0401
 IR Inten    --      2.0686                 0.3040                 0.0162

                     13                     14                     15
                      A                      A                      A
 Frequencies --    234.7339               253.2634               255.9560
 Red. masses --      1.3227                 1.3555                 2.2562
 Frc consts  --      0.0429                 0.0512                 0.0871
 IR Inten    --      0.3083                 0.0413                 0.4212

                     16                     17                     18
                      A                      A                      A
 Frequencies --    270.2111               278.1428               290.5137
 Red. masses --      2.0615                 1.6469                 1.5031
 Frc consts  --      0.0887                 0.0751                 0.0747
 IR Inten    --      0.1093                 1.2285                 0.1415

                     19                     20                     21
                      A                      A                      A
 Frequencies --    308.1622               322.4239               332.2649
 Red. masses --      2.3833                 2.8946                 2.8952
 Frc consts  --      0.1333                 0.1773                 0.1883
 IR Inten    --      0.0633                 0.6716                 1.5247

                     22                     23                     24
                      A                      A                      A
 Frequencies --    354.6377               385.2275               399.5272
 Red. masses --      2.9118                 3.5391                 3.6297
 Frc consts  --      0.2158                 0.3094                 0.3414
 IR Inten    --      0.8568                 4.0765                 4.8148

                     25                     26                     27
                      A                      A                      A
 Frequencies --    416.6051               460.6895               498.0324
 Red. masses --      2.8859                 3.4562                 3.3245
 Frc consts  --      0.2951                 0.4322                 0.4858
 IR Inten    --      0.0403                 1.5626                 5.6511

                     28                     29                     30
                      A                      A                      A
 Frequencies --    536.5485               571.1859               611.7499
 Red. masses --      3.9657                 3.4071                 3.8048
 Frc consts  --      0.6726                 0.6549                 0.8389
 IR Inten    --      3.4641                 7.6397                15.5130

                     31                     32                     33
                      A                      A                      A
 Frequencies --    631.1835               669.0502               675.7210
 Red. masses --      6.2704                 4.0264                 4.3880
 Frc consts  --      1.4718                 1.0619                 1.1805
 IR Inten    --      0.3332                 1.1590                13.4809

                     34                     35                     36
                      A                      A                      A
 Frequencies --    725.7465               735.0085               763.7177
 Red. masses --      1.5599                 6.6848                 3.1500
 Frc consts  --      0.4841                 2.1277                 1.0825
 IR Inten    --     37.8653                 1.5662                 1.5183

                     37                     38                     39
                      A                      A                      A
 Frequencies --    768.9516               787.3998               811.5001
 Red. masses --      4.5433                 2.3736                 3.5115
 Frc consts  --      1.5828                 0.8671                 1.3624
 IR Inten    --      7.4659                12.5520                 0.8106

                     40                     41                     42
                      A                      A                      A
 Frequencies --    867.2415               888.3497               900.1581
 Red. masses --      1.2517                 2.6272                 2.4756
 Frc consts  --      0.5547                 1.2216                 1.1819
 IR Inten    --      0.0338                 6.7184                 1.6727

                     43                     44                     45
                      A                      A                      A
 Frequencies --    909.2696               930.6308               935.3131
 Red. masses --      2.8838                 1.8959                 1.4195
 Frc consts  --      1.4048                 0.9674                 0.7317
 IR Inten    --      4.6537                 0.4503                 0.6930

                     46                     47                     48
                      A                      A                      A
 Frequencies --    947.6995               951.5370               967.0077
 Red. masses --      1.3959                 1.6868                 1.8062
 Frc consts  --      0.7387                 0.8999                 0.9951
 IR Inten    --      0.9228                 1.5932                 0.5241

                     49                     50                     51
                      A                      A                      A
 Frequencies --    986.7656              1001.2948              1007.0899
 Red. masses --      1.7388                 3.9953                 1.3749
 Frc consts  --      0.9976                 2.3601                 0.8216
 IR Inten    --      8.1609                36.0605                 0.2298

                     52                     53                     54
                      A                      A                      A
 Frequencies --   1016.6374              1019.2080              1024.1371
 Red. masses --      4.9109                 2.2987                 1.5454
 Frc consts  --      2.9905                 1.4069                 0.9550
 IR Inten    --      2.2400                24.9906                 7.1901

                     55                     56                     57
                      A                      A                      A
 Frequencies --   1027.4299              1033.1069              1049.0636
 Red. masses --      1.3414                 4.2061                 5.8009
 Frc consts  --      0.8343                 2.6450                 3.7614
 IR Inten    --      0.1569                23.7813                16.2147

                     58                     59                     60
                      A                      A                      A
 Frequencies --   1060.1304              1100.4784              1115.0890
 Red. masses --      2.2259                 1.6169                 2.0970
 Frc consts  --      1.4739                 1.1537                 1.5363
 IR Inten    --     11.4434                10.3229                26.7551

                     61                     62                     63
                      A                      A                      A
 Frequencies --   1119.8871              1136.7837              1165.0564
 Red. masses --      1.9352                 1.8570                 2.1032
 Frc consts  --      1.4300                 1.4139                 1.6820
 IR Inten    --      6.0219                 3.1906                31.9074

                     64                     65                     66
                      A                      A                      A
 Frequencies --   1166.9176              1170.2426              1172.4011
 Red. masses --      1.9134                 1.3460                 3.1042
 Frc consts  --      1.5351                 1.0860                 2.5140
 IR Inten    --     39.4536                 7.3524                 5.4712

                     67                     68                     69
                      A                      A                      A
 Frequencies --   1175.9830              1190.9647              1198.6897
 Red. masses --      2.5825                 1.1453                 2.8837
 Frc consts  --      2.1042                 0.9571                 2.4413
 IR Inten    --    175.7198                 0.7456                34.9553

                     70                     71                     72
                      A                      A                      A
 Frequencies --   1218.3196              1224.6059              1237.0435
 Red. masses --      1.2601                 1.2995                 2.4154
 Frc consts  --      1.1020                 1.1482                 2.1777
 IR Inten    --      4.1660                 7.4636                 1.1447

                     73                     74                     75
                      A                      A                      A
 Frequencies --   1284.4016              1301.3997              1316.3743
 Red. masses --      1.6442                 2.6308                 1.5091
 Frc consts  --      1.5981                 2.6251                 1.5407
 IR Inten    --     45.5803                12.9421                19.9704

                     76                     77                     78
                      A                      A                      A
 Frequencies --   1322.9243              1335.6506              1361.2703
 Red. masses --      1.3714                 1.7751                 1.2461
 Frc consts  --      1.4142                 1.8658                 1.3605
 IR Inten    --      0.8176                32.6843                 6.2876

                     79                     80                     81
                      A                      A                      A
 Frequencies --   1371.4107              1380.1145              1388.5508
 Red. masses --      1.4722                 1.3213                 1.3373
 Frc consts  --      1.6314                 1.4828                 1.5191
 IR Inten    --     12.9730                 9.8909                15.4598

                     82                     83                     84
                      A                      A                      A
 Frequencies --   1401.3021              1401.6687              1428.5930
 Red. masses --      6.4824                 1.6644                 2.0524
 Frc consts  --      7.4998                 1.9267                 2.4680
 IR Inten    --      1.1191                14.9731                12.2500

                     85                     86                     87
                      A                      A                      A
 Frequencies --   1435.3195              1451.0522              1453.2256
 Red. masses --      1.9057                 1.0584                 1.0673
 Frc consts  --      2.3131                 1.3130                 1.3281
 IR Inten    --     50.5210                 2.0358                 2.4442

                     88                     89                     90
                      A                      A                      A
 Frequencies --   1456.3803              1459.2051              1461.1504
 Red. masses --      1.0487                 1.0698                 1.0565
 Frc consts  --      1.3106                 1.3420                 1.3289
 IR Inten    --      0.7110                 5.1216                 9.0393

                     91                     92                     93
                      A                      A                      A
 Frequencies --   1467.1827              1471.2844              1483.8759
 Red. masses --      1.0469                 1.0858                 1.0960
 Frc consts  --      1.3277                 1.3849                 1.4219
 IR Inten    --      5.2133                 8.4824                 5.0954

                     94                     95                     96
                      A                      A                      A
 Frequencies --   1486.2430              1493.3597              1504.2423
 Red. masses --      2.4059                 1.2425                 1.5622
 Frc consts  --      3.1311                 1.6326                 2.0827
 IR Inten    --      4.1466                12.6270                91.1883

                     97                     98                     99
                      A                      A                      A
 Frequencies --   1537.2263              1670.2257              1693.6741
 Red. masses --      2.5814                 6.5720                 6.5960
 Frc consts  --      3.5940                10.8019                11.1478
 IR Inten    --     16.5778                 3.5737                 6.8388

                    100                    101                    102
                      A                      A                      A
 Frequencies --   1729.1363              1762.3691              3053.0836
 Red. masses --     11.3850                11.4054                 1.0870
 Frc consts  --     20.0560                20.8716                 5.9698
 IR Inten    --     68.9605               271.7952                19.7617

                    103                    104                    105
                      A                      A                      A
 Frequencies --   3057.2224              3058.1215              3058.7537
 Red. masses --      1.0339                 1.0352                 1.0367
 Frc consts  --      5.6938                 5.7040                 5.7149
 IR Inten    --     12.1121                 9.8673                17.3563

                    106                    107                    108
                      A                      A                      A
 Frequencies --   3077.6679              3081.6980              3086.9969
 Red. masses --      1.0649                 1.0372                 1.0625
 Frc consts  --      5.9428                 5.8036                 5.9657
 IR Inten    --     41.7774                12.2716                28.4332

                    109                    110                    111
                      A                      A                      A
 Frequencies --   3159.6917              3160.5104              3163.8484
 Red. masses --      1.1048                 1.1047                 1.1042
 Frc consts  --      6.4988                 6.5014                 6.5120
 IR Inten    --     14.8381                17.1670                11.6502

                    112                    113                    114
                      A                      A                      A
 Frequencies --   3164.5043              3168.1895              3170.5038
 Red. masses --      1.1058                 1.1064                 1.1094
 Frc consts  --      6.5244                 6.5433                 6.5704
 IR Inten    --      8.8019                19.5206                18.6526

                    115                    116                    117
                      A                      A                      A
 Frequencies --   3173.4333              3175.6137              3180.2150
 Red. masses --      1.1058                 1.1055                 1.1033
 Frc consts  --      6.5612                 6.5685                 6.5745
 IR Inten    --     10.1622                 5.2150                 9.5508

                    118                    119                    120
                      A                      A                      A
 Frequencies --   3189.9462              3200.5367              3205.2248
 Red. masses --      1.0885                 1.1054                 1.0880
 Frc consts  --      6.5263                 6.6711                 6.5855
 IR Inten    --      5.8566                 7.0398                 0.8317

                    121                    122                    123
                      A                      A                      A
 Frequencies --   3215.6649              3226.1191              3235.1874
 Red. masses --      1.0933                 1.0978                 1.0971
 Frc consts  --      6.6611                 6.7319                 6.7652
 IR Inten    --     13.5657                11.5815                 5.2768

 - Thermochemistry -
 -------------------
 Temperature   298.150 Kelvin.  Pressure   1.00000 Atm.
 Atom     1 has atomic number  6 and mass  12.00000

 Molecular mass:   286.16813 amu.
 Principal axes and moments of inertia in atomic units:
                           1         2         3
     Eigenvalues --  3173.90249********************
           X            0.99997   0.00749   0.00148
           Y           -0.00745   0.99955  -0.02897
           Z           -0.00170   0.02896   0.99958
 This molecule is an asymmetric top.
 Rotational symmetry number  1.
 Warning -- assumption of classical behavior for rotation
           may cause significant error
 Rotational temperatures (Kelvin)      0.02729     0.00846     0.00789
 Rotational constants (GHZ):           0.56862     0.17633     0.16446
    2 imaginary frequencies ignored.
 Zero-point vibrational energy     963062.3 (Joules/Mol)
                                  230.17741 (Kcal/Mol)
 Warning -- explicit consideration of  28 degrees of freedom as
           vibrations may cause significant error
 Vibrational temperatures:     22.22    64.72    94.92   102.67   140.57
          (Kelvin)            175.91   205.29   259.14   291.83   336.48
                              337.73   364.39   368.26   388.77   400.19
                              417.98   443.38   463.90   478.06   510.24
                              554.26   574.83   599.40   662.83   716.56
                              771.97   821.81   880.17   908.13   962.61
                              972.21  1044.19  1057.51  1098.82  1106.35
                             1132.89  1167.57  1247.77  1278.14  1295.13
                             1308.24  1338.97  1345.71  1363.53  1369.05
                             1391.31  1419.74  1440.64  1448.98  1462.71
                             1466.41  1473.50  1478.24  1486.41  1509.37
                             1525.29  1583.34  1604.36  1611.27  1635.58
                             1676.26  1678.93  1683.72  1686.82  1691.98
                             1713.53  1724.65  1752.89  1761.93  1779.83
                             1847.97  1872.42  1893.97  1903.39  1921.70
                             1958.56  1973.15  1985.68  1997.81  2016.16
                             2016.69  2055.43  2065.10  2087.74  2090.87
                             2095.41  2099.47  2102.27  2110.95  2116.85
                             2134.97  2138.37  2148.61  2164.27  2211.73
                             2403.08  2436.82  2487.84  2535.66  4392.71
                             4398.66  4399.95  4400.86  4428.08  4433.88
                             4441.50  4546.09  4547.27  4552.07  4553.02
                             4558.32  4561.65  4565.86  4569.00  4575.62
                             4589.62  4604.86  4611.60  4626.62  4641.67
                             4654.71

 Zero-point correction=                           0.366811 (Hartree/Particle)
 Thermal correction to Energy=                    0.385194
 Thermal correction to Enthalpy=                  0.386138
 Thermal correction to Gibbs Free Energy=         0.319792
 Sum of electronic and zero-point Energies=           -918.941028
 Sum of electronic and thermal Energies=              -918.922645
 Sum of electronic and thermal Enthalpies=            -918.921701
 Sum of electronic and thermal Free Energies=         -918.988047

                     E (Thermal)             CV                S
                      KCal/Mol        Cal/Mol-Kelvin    Cal/Mol-Kelvin
 Total                  241.713             72.957            139.637
 Electronic               0.000              0.000              0.000
 Translational            0.889              2.981             42.852
 Rotational               0.889              2.981             34.232
 Vibrational            239.935             66.996             62.553
 Vibration     1          0.593              1.986              7.148
 Vibration     2          0.595              1.979              5.027
 Vibration     3          0.597              1.971              4.270
 Vibration     4          0.598              1.968              4.115
 Vibration     5          0.603              1.951              3.500
 Vibration     6          0.610              1.931              3.064
 Vibration     7          0.616              1.911              2.768
 Vibration     8          0.629              1.867              2.327
 Vibration     9          0.639              1.836              2.107
 Vibration    10          0.654              1.789              1.849
 Vibration    11          0.655              1.788              1.842
 Vibration    12          0.664              1.757              1.708
 Vibration    13          0.666              1.753              1.689
 Vibration    14          0.674              1.728              1.595
 Vibration    15          0.679              1.714              1.545
 Vibration    16          0.686              1.691              1.471
 Vibration    17          0.698              1.658              1.372
 Vibration    18          0.707              1.631              1.298
 Vibration    19          0.714              1.611              1.249
 Vibration    20          0.730              1.566              1.146
 Vibration    21          0.754              1.502              1.019
 Vibration    22          0.766              1.471              0.964
 Vibration    23          0.780              1.434              0.904
 Vibration    24          0.819              1.337              0.764
 Vibration    25          0.854              1.254              0.663
 Vibration    26          0.892              1.169              0.573
 Vibration    27          0.927              1.094              0.502
 Vibration    28          0.971              1.007              0.430

 Normal termination of Gaussian 16 at Thu Nov  3 08:30:38 2022.
