 Gaussian 16, Revision A.03,
 Gaussian 16:  ES64L-G16RevA.03 25-Dec-2016

 ----------------------------------------------------------------------
 #p pop=(regular,nbo,savenbos) freq=noraman def2svp empiricaldispersion
 =gd3bj output=wfx pbe1pbe
 ----------------------------------------------------------------------

 --------
 14_lig_b
 --------
 Symbolic Z-matrix:
 Charge =  0 Multiplicity = 1

                         Standard orientation:
 ---------------------------------------------------------------------
 Center     Atomic      Atomic             Coordinates (Angstroms)
 Number     Number       Type             X           Y           Z
 ---------------------------------------------------------------------
      1          6           0        0.026391    3.336590    0.033472
      2          7           0       -0.000740    1.876750   -0.007093
      3          6           0       -0.963519    1.202224   -0.716760
      4          7           0       -1.124523   -0.066082   -0.784316
      5          6           0       -2.378762   -0.308398   -1.519570
      6          1           0       -2.180336   -1.107097   -2.248201
      7          6           0       -2.608943    1.050134   -2.186389
      8          8           0       -1.827345    1.964501   -1.386034
      9          6           0       -3.444549   -0.761438   -0.544018
     10          6           0       -4.252692    0.153066    0.140617
     11          6           0       -5.180087   -0.289087    1.081744
     12          6           0       -5.301554   -1.650686    1.354661
     13          6           0       -4.489214   -2.565027    0.686208
     14          6           0       -3.564565   -2.125953   -0.258782
     15          7           0        1.115587   -0.086689    0.751656
     16          6           0        0.947555    1.180999    0.701135
     17          8           0        1.793274    1.942396    1.392779
     18          6           0        2.574207    1.023096    2.188221
     19          6           0        2.360500   -0.329823    1.502683
     20          1           0        2.156056   -1.137853    2.219255
     21          6           0        3.442608   -0.766136    0.537455
     22          6           0        3.570064   -2.126207    0.234588
     23          6           0        4.510626   -2.549902   -0.701604
     24          6           0        5.331506   -1.624504   -1.344001
     25          6           0        5.202665   -0.267246   -1.053713
     26          6           0        4.259499    0.159539   -0.121117
     27          1           0       -0.740250    3.713701   -0.647788
     28          1           0        1.012190    3.702403   -0.280411
     29          1           0       -0.176315    3.693963    1.052185
     30          1           0       -3.649541    1.393356   -2.182555
     31          1           0       -2.210317    1.083852   -3.211449
     32          1           0       -4.160255    1.226328   -0.049060
     33          1           0       -5.808875    0.434345    1.606422
     34          1           0       -6.027077   -1.998156    2.094060
     35          1           0       -4.569308   -3.632425    0.904031
     36          1           0       -2.901080   -2.834695   -0.763675
     37          1           0        2.166034    1.041333    3.209875
     38          1           0        3.612554    1.372870    2.199247
     39          1           0        2.899828   -2.843211    0.718516
     40          1           0        4.596691   -3.613941   -0.933210
     41          1           0        6.069506   -1.959952   -2.076574
     42          1           0        5.838099    0.464884   -1.557918
     43          1           0        4.162274    1.229813    0.082577
 ---------------------------------------------------------------------

 SCF Done:  E(RPBE1PBE) =  -1048.22395665     A.U. after   14 cycles

 The electronic state is 1-A.
 Alpha  occ. eigenvalues --  -19.25316 -19.25199 -14.44801 -14.34486 -14.34476
 Alpha  occ. eigenvalues --  -10.34416 -10.34245 -10.29387 -10.29326 -10.27480
 Alpha  occ. eigenvalues --  -10.26517 -10.26501 -10.23936 -10.23932 -10.23539
 Alpha  occ. eigenvalues --  -10.23537 -10.23477 -10.23476 -10.23407 -10.23402
 Alpha  occ. eigenvalues --  -10.23352 -10.23347 -10.23202 -10.23195  -1.13603
 Alpha  occ. eigenvalues --   -1.12718  -0.99232  -0.91530  -0.90936  -0.86944
 Alpha  occ. eigenvalues --   -0.86896  -0.80549  -0.79174  -0.75857  -0.75785
 Alpha  occ. eigenvalues --   -0.75510  -0.74403  -0.72293  -0.66897  -0.66043
 Alpha  occ. eigenvalues --   -0.64265  -0.61691  -0.61559  -0.59700  -0.59134
 Alpha  occ. eigenvalues --   -0.55554  -0.54501  -0.53859  -0.53303  -0.52104
 Alpha  occ. eigenvalues --   -0.51387  -0.50057  -0.48344  -0.47950  -0.46503
 Alpha  occ. eigenvalues --   -0.46229  -0.46129  -0.45842  -0.45650  -0.44160
 Alpha  occ. eigenvalues --   -0.43204  -0.42877  -0.42822  -0.42566  -0.41906
 Alpha  occ. eigenvalues --   -0.41581  -0.40301  -0.38729  -0.37778  -0.37377
 Alpha  occ. eigenvalues --   -0.37202  -0.37091  -0.35748  -0.35736  -0.34618
 Alpha  occ. eigenvalues --   -0.34536  -0.30819  -0.28544  -0.26303  -0.26238
 Alpha  occ. eigenvalues --   -0.25969  -0.25913  -0.24773  -0.23701  -0.22453
 Alpha virt. eigenvalues --   -0.00679  -0.00174  -0.00037   0.00004   0.03720
 Alpha virt. eigenvalues --    0.06794   0.07276   0.08559   0.08766   0.09276
 Alpha virt. eigenvalues --    0.09696   0.10165   0.10522   0.11229   0.12732

 Mulliken charges:
               1
     1  C    0.087003
     2  N   -0.364541
     3  C    0.301863
     4  N   -0.245763
     5  C   -0.044951
     6  H    0.032372
     7  C    0.244226
     8  O   -0.363619
     9  C    0.022968
    10  C   -0.042615
    11  C   -0.019463
    12  C   -0.012595
    13  C   -0.021319
    14  C   -0.003783
    15  N   -0.239462
    16  C    0.298259
    17  O   -0.364624
    18  C    0.245725
    19  C   -0.046315
    20  H    0.032478
    21  C    0.022718
    22  C   -0.003825
    23  C   -0.021196
    24  C   -0.012580
    25  C   -0.019429
    26  C   -0.042717
    27  H    0.077781
    28  H    0.060952
    29  H    0.060104
    30  H    0.048361
    31  H    0.052983
    32  H    0.017751
    33  H    0.016718
    34  H    0.019427
    35  H    0.019574
    36  H    0.017043
    37  H    0.052233
    38  H    0.048139
    39  H    0.017052
    40  H    0.019578
    41  H    0.019422
    42  H    0.016655
    43  H    0.017413
 Sum of Mulliken charges =  -0.00000

 Dipole moment (field-independent basis, Debye):
    X=             -0.0381    Y=              1.9818    Z=              0.0100  Tot=              1.9822
 Quadrupole moment (field-independent basis, Debye-Ang):
   XX=           -130.7496   YY=           -126.9860   ZZ=           -129.8986
   XY=             -0.0701   XZ=              0.2525   YZ=             -0.1263

  Exact polarizability: 241.268   0.762 231.307 -33.019   0.888 177.716
 Approx polarizability: 298.010   0.988 381.187 -57.827   1.514 267.300

 Summary of Natural Population Analysis:

                                       Natural Population
                Natural  -----------------------------------------------
    Atom  No    Charge         Core      Valence    Rydberg      Total
 -----------------------------------------------------------------------
      C    1   -0.41902      1.99931     4.40775    0.01197     6.41902
      N    2   -0.52316      1.99894     5.51237    0.01185     7.52316
      C    3    0.78448      1.99905     3.17409    0.04238     5.21552
      N    4   -0.56698      1.99929     5.55089    0.01680     7.56698
      C    5   -0.09279      1.99895     4.06831    0.02553     6.09279
      H    6    0.24609      0.00000     0.75051    0.00340     0.75391
      C    7   -0.07698      1.99905     4.05756    0.02036     6.07698
      O    8   -0.58795      1.99966     6.57831    0.00998     8.58795
      C    9   -0.04901      1.99886     4.03001    0.02014     6.04901
      C   10   -0.23444      1.99889     4.22057    0.01498     6.23444
      C   11   -0.22026      1.99895     4.20586    0.01546     6.22026
      C   12   -0.23355      1.99895     4.21952    0.01508     6.23355
      C   13   -0.22034      1.99895     4.20625    0.01514     6.22034
      C   14   -0.20936      1.99888     4.19430    0.01618     6.20936
      N   15   -0.56454      1.99929     5.54851    0.01674     7.56454
      C   16    0.78473      1.99906     3.17397    0.04224     5.21527
      O   17   -0.58298      1.99966     6.57322    0.01011     8.58298
      C   18   -0.07802      1.99905     4.05874    0.02023     6.07802
      C   19   -0.09304      1.99895     4.06857    0.02552     6.09304
      H   20    0.24605      0.00000     0.75056    0.00339     0.75395
      C   21   -0.04886      1.99886     4.02988    0.02011     6.04886
      C   22   -0.20930      1.99888     4.19424    0.01619     6.20930
      C   23   -0.22033      1.99895     4.20624    0.01514     6.22033
      C   24   -0.23354      1.99895     4.21951    0.01508     6.23354
      C   25   -0.22024      1.99895     4.20584    0.01546     6.22024
      C   26   -0.23445      1.99889     4.22061    0.01495     6.23445
      H   27    0.24496      0.00000     0.75238    0.00266     0.75504
      H   28    0.22486      0.00000     0.77241    0.00272     0.77514
      H   29    0.22167      0.00000     0.77557    0.00276     0.77833
      H   30    0.21866      0.00000     0.77825    0.00309     0.78134
      H   31    0.21403      0.00000     0.78283    0.00315     0.78597
      H   32    0.22808      0.00000     0.76812    0.00380     0.77192
      H   33    0.22919      0.00000     0.76805    0.00276     0.77081
      H   34    0.22953      0.00000     0.76775    0.00272     0.77047
      H   35    0.22997      0.00000     0.76728    0.00275     0.77003
      H   36    0.23399      0.00000     0.76312    0.00289     0.76601
      H   37    0.21397      0.00000     0.78288    0.00315     0.78603
      H   38    0.21842      0.00000     0.77849    0.00308     0.78158
      H   39    0.23403      0.00000     0.76308    0.00289     0.76597
      H   40    0.22997      0.00000     0.76728    0.00275     0.77003
      H   41    0.22954      0.00000     0.76775    0.00272     0.77046
      H   42    0.22916      0.00000     0.76808    0.00276     0.77084
      H   43    0.22778      0.00000     0.76842    0.00380     0.77222
 =======================================================================
   * Total *    0.00000     47.97723   121.51795    0.50482   170.00000

 ******    3 imaginary frequencies (negative Signs) ******

                      1                      2                      3
                      A                      A                      A
 Frequencies --    -52.7770               -43.4382               -36.9911
 Red. masses --      1.7465                 5.9937                 2.1339
 Frc consts  --      0.0029                 0.0067                 0.0017
 IR Inten    --      0.5096                 0.1657                 0.1668

                      4                      5                      6
                      A                      A                      A
 Frequencies --     27.1495                35.2649                42.6907
 Red. masses --      4.3820                 3.7213                 4.5287
 Frc consts  --      0.0019                 0.0027                 0.0049
 IR Inten    --      0.0025                 0.1420                 0.0096

                      7                      8                      9
                      A                      A                      A
 Frequencies --     67.6701                71.6795               101.8210
 Red. masses --      3.4429                 7.0675                 6.3939
 Frc consts  --      0.0093                 0.0214                 0.0391
 IR Inten    --      0.3269                 0.3281                 0.0749

                     10                     11                     12
                      A                      A                      A
 Frequencies --    136.2504               146.8389               193.1635
 Red. masses --      5.0542                 3.4267                 5.2243
 Frc consts  --      0.0553                 0.0435                 0.1148
 IR Inten    --      0.3517                 8.4672                 0.0473

                     13                     14                     15
                      A                      A                      A
 Frequencies --    244.8982               250.6517               252.3850
 Red. masses --      4.3741                 2.8187                 3.2536
 Frc consts  --      0.1546                 0.1043                 0.1221
 IR Inten    --      3.4128                 0.1129                 0.1250

                     16                     17                     18
                      A                      A                      A
 Frequencies --    291.5504               305.5968               333.2886
 Red. masses --      3.3422                 5.6143                 6.6082
 Frc consts  --      0.1674                 0.3089                 0.4325
 IR Inten    --      1.9108                 0.3741                 1.7884

                     19                     20                     21
                      A                      A                      A
 Frequencies --    374.9104               381.1577               395.6535
 Red. masses --      3.9279                 3.2793                 5.5110
 Frc consts  --      0.3253                 0.2807                 0.5083
 IR Inten    --      0.2359                 3.6008                 5.3740

                     22                     23                     24
                      A                      A                      A
 Frequencies --    417.3213               417.4197               426.5560
 Red. masses --      2.8524                 2.8484                 4.3872
 Frc consts  --      0.2927                 0.2924                 0.4703
 IR Inten    --      0.0030                 0.0009                 1.8881

                     25                     26                     27
                      A                      A                      A
 Frequencies --    528.3062               543.4212               584.9751
 Red. masses --      3.3874                 3.2492                 4.1944
 Frc consts  --      0.5570                 0.5653                 0.8457
 IR Inten    --      3.2160                11.8347                 0.2326

                     28                     29                     30
                      A                      A                      A
 Frequencies --    598.6442               630.2860               630.4225
 Red. masses --      4.1090                 6.2176                 6.3418
 Frc consts  --      0.8676                 1.4553                 1.4850
 IR Inten    --     18.2434                 0.7736                 0.1238

                     31                     32                     33
                      A                      A                      A
 Frequencies --    634.4356               709.2596               722.5658
 Red. masses --      4.6944                 9.6150                 1.5571
 Frc consts  --      1.1133                 2.8498                 0.4790
 IR Inten    --     19.1440                 1.9297                76.8981

                     34                     35                     36
                      A                      A                      A
 Frequencies --    723.3815               738.8357               771.1195
 Red. masses --      1.5343                 8.8534                 2.7079
 Frc consts  --      0.4730                 2.8474                 0.9487
 IR Inten    --      0.8717                24.8042                40.2950

                     37                     38                     39
                      A                      A                      A
 Frequencies --    775.2186               786.9560               788.6184
 Red. masses --      2.7716                 3.3280                 3.1147
 Frc consts  --      0.9814                 1.2143                 1.1413
 IR Inten    --      3.6885                12.6195                 4.8216

                     40                     41                     42
                      A                      A                      A
 Frequencies --    816.7342               833.6734               836.9585
 Red. masses --      4.7260                 4.4788                 4.5678
 Frc consts  --      1.8574                 1.8340                 1.8852
 IR Inten    --      4.3960                 2.3609                 3.8676

                     43                     44                     45
                      A                      A                      A
 Frequencies --    864.1435               864.3424               940.0747
 Red. masses --      1.2517                 1.2513                 1.5145
 Frc consts  --      0.5507                 0.5508                 0.7886
 IR Inten    --      0.1508                 0.4452                 0.4675

                     46                     47                     48
                      A                      A                      A
 Frequencies --    940.5091               972.5065               976.5560
 Red. masses --      1.5035                 7.6718                 5.6880
 Frc consts  --      0.7836                 4.2750                 3.1960
 IR Inten    --      3.0310                12.5491                97.4274

                     49                     50                     51
                      A                      A                      A
 Frequencies --    994.1873              1000.5518              1001.1588
 Red. masses --      2.3832                 1.5649                 1.4062
 Frc consts  --      1.3879                 0.9231                 0.8304
 IR Inten    --      1.0886                 4.1029                 0.2398

                     52                     53                     54
                      A                      A                      A
 Frequencies --   1001.9219              1015.8682              1017.3630
 Red. masses --      1.9299                 3.9656                 4.9823
 Frc consts  --      1.1414                 2.4112                 3.0383
 IR Inten    --      6.2593                 4.4124                 0.9533

                     55                     56                     57
                      A                      A                      A
 Frequencies --   1017.9480              1023.7347              1024.4891
 Red. masses --      3.4974                 1.3689                 1.4481
 Frc consts  --      2.1352                 0.8453                 0.8955
 IR Inten    --      0.0874                 0.6432                 0.0192

                     58                     59                     60
                      A                      A                      A
 Frequencies --   1038.0692              1046.8132              1051.5641
 Red. masses --      2.5202                 5.2252                 2.8291
 Frc consts  --      1.6001                 3.3736                 1.8432
 IR Inten    --      1.2057                 0.3082                 7.8138

                     61                     62                     63
                      A                      A                      A
 Frequencies --   1053.5700              1065.3600              1065.5052
 Red. masses --      2.5663                 1.9486                 1.9665
 Frc consts  --      1.6783                 1.3031                 1.3154
 IR Inten    --      6.5344                 2.8923                 0.8146

                     64                     65                     66
                      A                      A                      A
 Frequencies --   1089.6770              1114.8956              1114.9313
 Red. masses --      2.7603                 1.4383                 1.4334
 Frc consts  --      1.9311                 1.0533                 1.0498
 IR Inten    --     38.3682                 3.5374                15.6355

                     67                     68                     69
                      A                      A                      A
 Frequencies --   1143.6352              1169.9567              1169.9921
 Red. masses --      1.2873                 1.0704                 1.0704
 Frc consts  --      0.9920                 0.8633                 0.8633
 IR Inten    --      1.3570                 0.0867                 0.0134

                     70                     71                     72
                      A                      A                      A
 Frequencies --   1186.5554              1193.8398              1194.6799
 Red. masses --      2.0213                 1.1051                 1.1744
 Frc consts  --      1.6767                 0.9280                 0.9875
 IR Inten    --    193.2847                 0.3327                17.0411

                     73                     74                     75
                      A                      A                      A
 Frequencies --   1211.5564              1218.1948              1236.1075
 Red. masses --      1.3992                 1.5077                 1.5666
 Frc consts  --      1.2101                 1.3183                 1.4103
 IR Inten    --      1.0271                63.0408                 1.6798

                     76                     77                     78
                      A                      A                      A
 Frequencies --   1237.7081              1249.2023              1250.0606
 Red. masses --      1.4399                 1.3362                 1.3099
 Frc consts  --      1.2996                 1.2285                 1.2060
 IR Inten    --      6.5667                11.2200                15.0602

                     79                     80                     81
                      A                      A                      A
 Frequencies --   1279.0199              1324.0903              1324.9921
 Red. masses --      3.1612                 1.6315                 1.6091
 Frc consts  --      3.0469                 1.6853                 1.6644
 IR Inten    --     39.0576                 3.9353                19.5582

                     82                     83                     84
                      A                      A                      A
 Frequencies --   1338.9899              1351.0376              1372.4095
 Red. masses --      1.7762                 1.4622                 1.9329
 Frc consts  --      1.8763                 1.5725                 2.1450
 IR Inten    --      1.3361                 1.8663                 7.8880

                     85                     86                     87
                      A                      A                      A
 Frequencies --   1373.1240              1405.4999              1405.7888
 Red. masses --      1.9095                 4.5239                 4.7376
 Frc consts  --      2.1212                 5.2653                 5.5164
 IR Inten    --     17.3361                 5.1419                 3.7665

                     88                     89                     90
                      A                      A                      A
 Frequencies --   1411.4523              1464.4656              1467.0961
 Red. masses --      1.4969                 1.0397                 1.2044
 Frc consts  --      1.7570                 1.3138                 1.5273
 IR Inten    --      1.7089                 9.2900                42.2834

                     91                     92                     93
                      A                      A                      A
 Frequencies --   1472.4458              1483.5951              1494.5276
 Red. masses --      1.2562                 1.1423                 2.4965
 Frc consts  --      1.6047                 1.4813                 3.2854
 IR Inten    --     15.7199                 7.1768                11.6953

                     94                     95                     96
                      A                      A                      A
 Frequencies --   1495.8876              1513.6248              1538.6866
 Red. masses --      2.2453                 2.0375                 2.6042
 Frc consts  --      2.9602                 2.7503                 3.6327
 IR Inten    --      0.2290                20.9264                12.4371

                     97                     98                     99
                      A                      A                      A
 Frequencies --   1538.7687              1569.9402              1671.4542
 Red. masses --      2.6054                 4.4976                 6.4159
 Frc consts  --      3.6348                 6.5313                10.5608
 IR Inten    --      3.5752               597.0861                 1.4197

                    100                    101                    102
                      A                      A                      A
 Frequencies --   1671.4763              1691.5855              1692.0598
 Red. masses --      6.4163                 6.5075                 6.4327
 Frc consts  --     10.5617                10.9711                10.8511
 IR Inten    --      1.1079                33.8295                 2.1116

                    103                    104                    105
                      A                      A                      A
 Frequencies --   1707.8875              1777.4913              3087.3950
 Red. masses --     10.6733                11.0525                 1.0363
 Frc consts  --     18.3429                20.5743                 5.8200
 IR Inten    --    702.3176               474.5604                38.2030

                    106                    107                    108
                      A                      A                      A
 Frequencies --   3095.0755              3095.2717              3113.8867
 Red. masses --      1.0671                 1.0673                 1.0866
 Frc consts  --      6.0227                 6.0246                 6.2074
 IR Inten    --     29.0988                20.0595                43.9502

                    109                    110                    111
                      A                      A                      A
 Frequencies --   3114.1677              3178.0861              3185.7055
 Red. masses --      1.0866                 1.1074                 1.1071
 Frc consts  --      6.2085                 6.5898                 6.6198
 IR Inten    --     10.4685                 9.0328                17.7448

                    112                    113                    114
                      A                      A                      A
 Frequencies --   3185.7818              3194.0555              3194.1536
 Red. masses --      1.1071                 1.0874                 1.0874
 Frc consts  --      6.6204                 6.5365                 6.5368
 IR Inten    --     11.0165                 3.7366                 3.2568

                    115                    116                    117
                      A                      A                      A
 Frequencies --   3196.5542              3196.6879              3207.8192
 Red. masses --      1.0899                 1.0900                 1.0911
 Frc consts  --      6.5617                 6.5624                 6.6153
 IR Inten    --      1.0863                 1.2556                 2.6878

                    118                    119                    120
                      A                      A                      A
 Frequencies --   3207.8609              3218.3729              3218.4375
 Red. masses --      1.0912                 1.0960                 1.0960
 Frc consts  --      6.6157                 6.6885                 6.6888
 IR Inten    --      2.5785                12.4493                18.1623

                    121                    122                    123
                      A                      A                      A
 Frequencies --   3228.3531              3228.4022              3241.0722
 Red. masses --      1.1006                 1.1006                 1.1041
 Frc consts  --      6.7583                 6.7585                 6.8335
 IR Inten    --     15.0023                 9.1423                 0.0693

 - Thermochemistry -
 -------------------
 Temperature   298.150 Kelvin.  Pressure   1.00000 Atm.
 Atom     1 has atomic number  6 and mass  12.00000

 Molecular mass:   321.14773 amu.
 Principal axes and moments of inertia in atomic units:
                           1         2         3
     Eigenvalues --  4385.94080********************
           X            1.00000   0.00013  -0.00236
           Y           -0.00013   1.00000   0.00087
           Z            0.00236  -0.00087   1.00000
 This molecule is an asymmetric top.
 Rotational symmetry number  1.
 Warning -- assumption of classical behavior for rotation
           may cause significant error
 Rotational temperatures (Kelvin)      0.01975     0.00608     0.00552
 Rotational constants (GHZ):           0.41148     0.12674     0.11498
    3 imaginary frequencies ignored.
 Zero-point vibrational energy     930392.6 (Joules/Mol)
                                  222.36917 (Kcal/Mol)
 Warning -- explicit consideration of  25 degrees of freedom as
           vibrations may cause significant error
 Vibrational temperatures:     39.06    50.74    61.42    97.36   103.13
          (Kelvin)            146.50   196.03   211.27   277.92   352.35
                              360.63   363.13   419.48   439.69   479.53
                              539.41   548.40   569.26   600.43   600.57
                              613.72   760.11   781.86   841.65   861.32
                              906.84   907.04   912.81  1020.47  1039.61
                             1040.78  1063.02  1109.47  1115.37  1132.25
                             1134.65  1175.10  1199.47  1204.20  1243.31
                             1243.60  1352.56  1353.18  1399.22  1405.05
                             1430.41  1439.57  1440.44  1441.54  1461.61
                             1463.76  1464.60  1472.93  1474.01  1493.55
                             1506.13  1512.97  1515.85  1532.82  1533.02
                             1567.80  1604.09  1604.14  1645.44  1683.31
                             1683.36  1707.19  1717.67  1718.88  1743.16
                             1752.71  1778.48  1780.79  1797.32  1798.56
                             1840.22  1905.07  1906.37  1926.51  1943.84
                             1974.59  1975.62  2022.20  2022.62  2030.76
                             2107.04  2110.82  2118.52  2134.56  2150.29
                             2152.25  2177.77  2213.83  2213.94  2258.79
                             2404.85  2404.88  2433.81  2434.50  2457.27
                             2557.41  4442.07  4453.12  4453.41  4480.19
                             4480.59  4572.56  4583.52  4583.63  4595.53
                             4595.67  4599.13  4599.32  4615.34  4615.40
                             4630.52  4630.61  4644.88  4644.95  4663.18

 Zero-point correction=                           0.354368 (Hartree/Particle)
 Thermal correction to Energy=                    0.371879
 Thermal correction to Enthalpy=                  0.372823
 Thermal correction to Gibbs Free Energy=         0.306988
 Sum of electronic and zero-point Energies=          -1047.869589
 Sum of electronic and thermal Energies=             -1047.852078
 Sum of electronic and thermal Enthalpies=           -1047.851133
 Sum of electronic and thermal Free Energies=        -1047.916969

                     E (Thermal)             CV                S
                      KCal/Mol        Cal/Mol-Kelvin    Cal/Mol-Kelvin
 Total                  233.358             71.013            138.562
 Electronic               0.000              0.000              0.000
 Translational            0.889              2.981             43.196
 Rotational               0.889              2.981             35.237
 Vibrational            231.580             65.051             60.129
 Vibration     1          0.593              1.984              6.028
 Vibration     2          0.594              1.982              5.509
 Vibration     3          0.595              1.980              5.130
 Vibration     4          0.598              1.970              4.220
 Vibration     5          0.598              1.968              4.107
 Vibration     6          0.604              1.948              3.419
 Vibration     7          0.614              1.917              2.856
 Vibration     8          0.617              1.906              2.713
 Vibration     9          0.635              1.849              2.197
 Vibration    10          0.660              1.771              1.767
 Vibration    11          0.663              1.762              1.726
 Vibration    12          0.664              1.759              1.714
 Vibration    13          0.687              1.689              1.465
 Vibration    14          0.696              1.663              1.386
 Vibration    15          0.715              1.609              1.244
 Vibration    16          0.746              1.524              1.060
 Vibration    17          0.751              1.510              1.035
 Vibration    18          0.762              1.479              0.979
 Vibration    19          0.780              1.433              0.901
 Vibration    20          0.780              1.432              0.901
 Vibration    21          0.788              1.412              0.870
 Vibration    22          0.883              1.187              0.591
 Vibration    23          0.899              1.154              0.558
 Vibration    24          0.942              1.064              0.476
 Vibration    25          0.957              1.035              0.452

 Normal termination of Gaussian 16 at Thu Nov  3 08:34:45 2022.
