 Gaussian 16, Revision A.03,
 Gaussian 16:  ES64L-G16RevA.03 25-Dec-2016

 ----------------------------------------------------------------------
 #p pop=(regular,nbo,savenbos) freq=noraman def2svp empiricaldispersion
 =gd3bj output=wfx pbe1pbe
 ----------------------------------------------------------------------

 --------
 15_lig_b
 --------
 Symbolic Z-matrix:
 Charge =  0 Multiplicity = 1

                         Standard orientation:
 ---------------------------------------------------------------------
 Center     Atomic      Atomic             Coordinates (Angstroms)
 Number     Number       Type             X           Y           Z
 ---------------------------------------------------------------------
      1          6           0        4.846258   -1.824385    0.064316
      2          6           0        3.426868   -1.489456   -0.373012
      3          6           0        2.704434   -0.698257    0.724049
      4          1           0        2.691987   -1.325841    1.628104
      5          6           0        3.251002    0.716659    1.001216
      6          8           0        2.173821    1.601944    0.630991
      7          6           0        1.139450    0.827224    0.322673
      8          7           0        1.310503   -0.439544    0.360660
      9          7           0       -1.317778   -0.427268   -0.380724
     10          6           0       -1.153434    0.840611   -0.333700
     11          7           0       -0.002726    1.515581   -0.005788
     12          6           0        0.037413    2.976002    0.009897
     13          8           0       -2.198400    1.607772   -0.627637
     14          6           0       -3.268725    0.717368   -1.004594
     15          6           0       -2.713755   -0.693616   -0.729795
     16          1           0       -2.707665   -1.323169   -1.632458
     17          6           0       -3.421566   -1.485550    0.376369
     18          6           0       -3.367014   -0.791935    1.729863
     19          6           0       -4.842651   -1.830671   -0.047246
     20          6           0        3.380422   -0.800416   -1.729152
     21          1           0        5.338148   -2.469545   -0.678514
     22          1           0        4.848115   -2.361487    1.025215
     23          1           0        5.471958   -0.921632    0.173862
     24          1           0        2.862987   -2.436013   -0.435365
     25          1           0        4.126117    0.982725    0.392435
     26          1           0        3.481408    0.897528    2.060341
     27          1           0       -0.941607    3.350662   -0.297845
     28          1           0        0.807791    3.339676   -0.682336
     29          1           0        0.271259    3.338222    1.019748
     30          1           0       -3.495636    0.899691   -2.064348
     31          1           0       -4.147480    0.976900   -0.398400
     32          1           0       -2.851995   -2.428872    0.436657
     33          1           0       -3.899419    0.175104    1.727125
     34          1           0       -2.328546   -0.613019    2.047728
     35          1           0       -3.839972   -1.417421    2.501349
     36          1           0       -5.474824   -0.932207   -0.154821
     37          1           0       -5.324107   -2.475950    0.702296
     38          1           0       -4.849277   -2.371555   -1.005989
     39          1           0        3.908557    0.168990   -1.725200
     40          1           0        2.343851   -0.627142   -2.056187
     41          1           0        3.862762   -1.426208   -2.494563
 ---------------------------------------------------------------------

 SCF Done:  E(RPBE1PBE) =  -822.419036758     A.U. after   14 cycles

 The electronic state is 1-A.
 Alpha  occ. eigenvalues --  -19.24827 -19.24710 -14.44416 -14.33983 -14.33978
 Alpha  occ. eigenvalues --  -10.34106 -10.33928 -10.28809 -10.28744 -10.27122
 Alpha  occ. eigenvalues --  -10.25468 -10.25449 -10.22865 -10.22859 -10.22259
 Alpha  occ. eigenvalues --  -10.22250 -10.21463 -10.21454  -1.13185  -1.12275
 Alpha  occ. eigenvalues --   -0.98809  -0.90965  -0.90345  -0.82057  -0.81602
 Alpha  occ. eigenvalues --   -0.77287  -0.75083  -0.71930  -0.69277  -0.69204
 Alpha  occ. eigenvalues --   -0.66335  -0.65695  -0.63864  -0.57842  -0.56600
 Alpha  occ. eigenvalues --   -0.54555  -0.53459  -0.52353  -0.51978  -0.50878
 Alpha  occ. eigenvalues --   -0.48054  -0.47883  -0.45971  -0.45500  -0.45454
 Alpha  occ. eigenvalues --   -0.44867  -0.44425  -0.43470  -0.43338  -0.42118
 Alpha  occ. eigenvalues --   -0.40178  -0.39438  -0.39214  -0.38759  -0.38388
 Alpha  occ. eigenvalues --   -0.37758  -0.37539  -0.37134  -0.34812  -0.34727
 Alpha  occ. eigenvalues --   -0.34223  -0.34189  -0.32461  -0.32313  -0.30153
 Alpha  occ. eigenvalues --   -0.28136  -0.24269  -0.23488  -0.22157
 Alpha virt. eigenvalues --    0.03482   0.06391   0.06640   0.08098   0.08686
 Alpha virt. eigenvalues --    0.09306   0.09660   0.10363   0.10585   0.11241
 Alpha virt. eigenvalues --    0.11591   0.13245   0.13516   0.13822   0.14657

 Mulliken charges:
               1
     1  C   -0.032688
     2  C   -0.142840
     3  C   -0.058979
     4  H    0.034032
     5  C    0.231837
     6  O   -0.362987
     7  C    0.290139
     8  N   -0.241786
     9  N   -0.248021
    10  C    0.293662
    11  N   -0.363395
    12  C    0.089174
    13  O   -0.361912
    14  C    0.231385
    15  C   -0.058595
    16  H    0.033991
    17  C   -0.142316
    18  C   -0.049785
    19  C   -0.032722
    20  C   -0.049758
    21  H    0.041821
    22  H    0.037166
    23  H    0.026182
    24  H    0.049291
    25  H    0.046213
    26  H    0.047452
    27  H    0.077592
    28  H    0.058915
    29  H    0.058402
    30  H    0.047944
    31  H    0.046660
    32  H    0.049516
    33  H    0.024224
    34  H    0.063609
    35  H    0.036939
    36  H    0.026005
    37  H    0.041870
    38  H    0.037230
    39  H    0.023931
    40  H    0.063681
    41  H    0.036921
 Sum of Mulliken charges =  -0.00000

 Dipole moment (field-independent basis, Debye):
    X=             -0.0349    Y=              1.6413    Z=              0.0053  Tot=              1.6417
 Quadrupole moment (field-independent basis, Debye-Ang):
   XX=            -96.6446   YY=           -107.5154   ZZ=           -107.2543
   XY=             -0.0898   XZ=              3.9829   YZ=             -0.1017

  Exact polarizability: 197.227   0.928 159.595   8.295   0.313 133.912
 Approx polarizability: 225.657   1.025 239.122  10.864   0.491 185.653

 Summary of Natural Population Analysis:

                                       Natural Population
                Natural  -----------------------------------------------
    Atom  No    Charge         Core      Valence    Rydberg      Total
 -----------------------------------------------------------------------
      C    1   -0.65264      1.99922     4.64276    0.01066     6.65264
      C    2   -0.26409      1.99898     4.24895    0.01617     6.26409
      C    3   -0.07945      1.99899     4.05541    0.02505     6.07945
      H    4    0.23497      0.00000     0.76117    0.00387     0.76503
      C    5   -0.08384      1.99904     4.06537    0.01943     6.08384
      O    6   -0.57876      1.99965     6.56887    0.01023     8.57876
      C    7    0.78736      1.99905     3.17173    0.04186     5.21264
      N    8   -0.58208      1.99929     5.56589    0.01690     7.58208
      N    9   -0.58407      1.99929     5.56783    0.01695     7.58407
      C   10    0.78711      1.99904     3.17183    0.04201     5.21289
      N   11   -0.52469      1.99895     5.51389    0.01186     7.52469
      C   12   -0.41931      1.99931     4.40793    0.01207     6.41931
      O   13   -0.58377      1.99965     6.57401    0.01011     8.58377
      C   14   -0.08273      1.99904     4.06411    0.01957     6.08273
      C   15   -0.07931      1.99899     4.05524    0.02507     6.07931
      H   16    0.23524      0.00000     0.76091    0.00385     0.76476
      C   17   -0.26426      1.99898     4.24907    0.01620     6.26426
      C   18   -0.66293      1.99922     4.65211    0.01160     6.66293
      C   19   -0.65261      1.99922     4.64273    0.01066     6.65261
      C   20   -0.66287      1.99922     4.65206    0.01158     6.66287
      H   21    0.22888      0.00000     0.76858    0.00254     0.77112
      H   22    0.22288      0.00000     0.77445    0.00267     0.77712
      H   23    0.21117      0.00000     0.78597    0.00285     0.78883
      H   24    0.24903      0.00000     0.74582    0.00516     0.75097
      H   25    0.20781      0.00000     0.78902    0.00317     0.79219
      H   26    0.21272      0.00000     0.78439    0.00289     0.78728
      H   27    0.24507      0.00000     0.75225    0.00268     0.75493
      H   28    0.22332      0.00000     0.77394    0.00274     0.77668
      H   29    0.22205      0.00000     0.77519    0.00275     0.77795
      H   30    0.21259      0.00000     0.78449    0.00293     0.78741
      H   31    0.20818      0.00000     0.78865    0.00317     0.79182
      H   32    0.24918      0.00000     0.74567    0.00515     0.75082
      H   33    0.21029      0.00000     0.78706    0.00265     0.78971
      H   34    0.24140      0.00000     0.75530    0.00330     0.75860
      H   35    0.22682      0.00000     0.77073    0.00244     0.77318
      H   36    0.21104      0.00000     0.78610    0.00285     0.78896
      H   37    0.22893      0.00000     0.76853    0.00254     0.77107
      H   38    0.22290      0.00000     0.77443    0.00267     0.77710
      H   39    0.21012      0.00000     0.78723    0.00265     0.78988
      H   40    0.24154      0.00000     0.75515    0.00331     0.75846
      H   41    0.22679      0.00000     0.77077    0.00244     0.77321
 =======================================================================
   * Total *    0.00000     35.98514   101.61560    0.39927   138.00000

 ******    3 imaginary frequencies (negative Signs) ******

                      1                      2                      3
                      A                      A                      A
 Frequencies --    -85.7454               -73.9976               -35.9539
 Red. masses --      6.7092                 4.2483                 1.1665
 Frc consts  --      0.0291                 0.0137                 0.0009
 IR Inten    --      0.0829                 1.1066                 0.0284

                      4                      5                      6
                      A                      A                      A
 Frequencies --     22.8924                51.4561                75.1055
 Red. masses --      3.1469                 2.8296                 2.6848
 Frc consts  --      0.0010                 0.0044                 0.0089
 IR Inten    --      0.0086                 0.0084                 0.1508

                      7                      8                      9
                      A                      A                      A
 Frequencies --     81.7923                84.8128               122.9385
 Red. masses --      4.5834                 2.7279                 2.9556
 Frc consts  --      0.0181                 0.0116                 0.0263
 IR Inten    --      0.1853                 0.1331                 3.3787

                     10                     11                     12
                      A                      A                      A
 Frequencies --    169.7609               197.4356               226.8094
 Red. masses --      2.9113                 3.3573                 1.0785
 Frc consts  --      0.0494                 0.0771                 0.0327
 IR Inten    --      0.2301                 7.2005                 0.6124

                     13                     14                     15
                      A                      A                      A
 Frequencies --    228.4775               232.0248               238.1644
 Red. masses --      1.1474                 1.4485                 1.3661
 Frc consts  --      0.0353                 0.0459                 0.0457
 IR Inten    --      0.0001                 0.0104                 0.0761

                     16                     17                     18
                      A                      A                      A
 Frequencies --    260.3014               266.5825               284.8071
 Red. masses --      1.6370                 1.6632                 2.6381
 Frc consts  --      0.0654                 0.0696                 0.1261
 IR Inten    --      0.0622                 0.3638                 0.0481

                     19                     20                     21
                      A                      A                      A
 Frequencies --    286.5308               321.7499               335.9976
 Red. masses --      3.3186                 3.5076                 3.1014
 Frc consts  --      0.1605                 0.2139                 0.2063
 IR Inten    --      0.3238                 2.0963                 3.0228

                     22                     23                     24
                      A                      A                      A
 Frequencies --    342.3621               385.6894               397.8431
 Red. masses --      2.8086                 3.8234                 2.6500
 Frc consts  --      0.1940                 0.3351                 0.2471
 IR Inten    --      1.2952                 4.1125                 0.6725

                     25                     26                     27
                      A                      A                      A
 Frequencies --    461.5066               523.8909               541.0265
 Red. masses --      3.7598                 4.1446                 2.3026
 Frc consts  --      0.4718                 0.6702                 0.3971
 IR Inten    --      2.2370                 1.9557                 0.3866

                     28                     29                     30
                      A                      A                      A
 Frequencies --    543.1960               642.8914               694.1266
 Red. masses --      2.3607                 5.1318                 7.2846
 Frc consts  --      0.4104                 1.2497                 2.0679
 IR Inten    --      0.7564                27.5711                 1.1219

                     31                     32                     33
                      A                      A                      A
 Frequencies --    722.8848               767.8695               769.3040
 Red. masses --      5.4719                 3.6249                 4.1293
 Frc consts  --      1.6847                 1.2593                 1.4399
 IR Inten    --     13.2777                 1.9357                12.3132

                     34                     35                     36
                      A                      A                      A
 Frequencies --    813.9491               824.1100               824.7527
 Red. masses --      4.3021                 3.8239                 4.0398
 Frc consts  --      1.6793                 1.5301                 1.6190
 IR Inten    --      7.7409                 2.1857                 3.9893

                     37                     38                     39
                      A                      A                      A
 Frequencies --    909.6680               910.1740               922.7514
 Red. masses --      2.0809                 2.0841                 1.1735
 Frc consts  --      1.0145                 1.0172                 0.5887
 IR Inten    --      0.6536                 0.1298                 2.2947

                     40                     41                     42
                      A                      A                      A
 Frequencies --    923.1668               960.6033               961.4659
 Red. masses --      1.1685                 2.5436                 1.4558
 Frc consts  --      0.5867                 1.3829                 0.7929
 IR Inten    --      5.8460                 8.5991                12.0796

                     43                     44                     45
                      A                      A                      A
 Frequencies --    962.4562               974.6566              1006.6961
 Red. masses --      1.4441                 2.1258                 2.5870
 Frc consts  --      0.7882                 1.1898                 1.5447
 IR Inten    --      0.0241                51.3462                 0.9980

                     46                     47                     48
                      A                      A                      A
 Frequencies --   1013.1234              1027.2066              1027.5071
 Red. masses --      3.5102                 1.9139                 1.9563
 Frc consts  --      2.1228                 1.1898                 1.2169
 IR Inten    --     49.6463                 3.8737                 0.9717

                     49                     50                     51
                      A                      A                      A
 Frequencies --   1045.9739              1077.5181              1084.4167
 Red. masses --      9.1019                 2.6189                 3.2108
 Frc consts  --      5.8671                 1.7915                 2.2246
 IR Inten    --      7.9050                 7.8983                 7.6438

                     52                     53                     54
                      A                      A                      A
 Frequencies --   1108.1410              1139.2464              1140.4084
 Red. masses --      2.8490                 1.8076                 1.8267
 Frc consts  --      2.0612                 1.3823                 1.3997
 IR Inten    --     59.3319                 2.6601                 8.3354

                     55                     56                     57
                      A                      A                      A
 Frequencies --   1144.6689              1164.5893              1164.7826
 Red. masses --      1.2972                 1.9286                 1.9239
 Frc consts  --      1.0014                 1.5411                 1.5379
 IR Inten    --      0.3062                 7.8261                 4.3138

                     58                     59                     60
                      A                      A                      A
 Frequencies --   1191.9367              1208.6839              1212.1839
 Red. masses --      2.2698                 1.5370                 1.6544
 Frc consts  --      1.9000                 1.3229                 1.4323
 IR Inten    --    217.1594                 0.8661                47.7188

                     61                     62                     63
                      A                      A                      A
 Frequencies --   1225.2412              1225.7951              1264.5696
 Red. masses --      1.1718                 1.1812                 1.3691
 Frc consts  --      1.0365                 1.0457                 1.2900
 IR Inten    --      4.6042                 2.7480                37.1446

                     64                     65                     66
                      A                      A                      A
 Frequencies --   1265.0352              1275.0164              1316.5415
 Red. masses --      1.3018                 2.5155                 1.6796
 Frc consts  --      1.2274                 2.4094                 1.7153
 IR Inten    --     18.6213                21.0361                 1.3173

                     67                     68                     69
                      A                      A                      A
 Frequencies --   1322.4769              1341.1812              1342.3114
 Red. masses --      1.4171                 1.6447                 1.7239
 Frc consts  --      1.4602                 1.7430                 1.8301
 IR Inten    --      3.3337                 1.4916                 1.2197

                     70                     71                     72
                      A                      A                      A
 Frequencies --   1351.3745              1355.1537              1371.0111
 Red. masses --      1.6240                 1.3790                 1.4973
 Frc consts  --      1.7474                 1.4921                 1.6583
 IR Inten    --      0.1558                 2.7945                 3.3349

                     73                     74                     75
                      A                      A                      A
 Frequencies --   1374.1550              1393.6535              1394.4032
 Red. masses --      1.5302                 1.3801                 1.3717
 Frc consts  --      1.7024                 1.5794                 1.5714
 IR Inten    --      5.2859                 0.3404                10.2115

                     76                     77                     78
                      A                      A                      A
 Frequencies --   1405.6677              1406.4551              1412.4570
 Red. masses --      1.4538                 1.4538                 1.4044
 Frc consts  --      1.6925                 1.6944                 1.6508
 IR Inten    --     28.4677                 1.4932                 1.9415

                     79                     80                     81
                      A                      A                      A
 Frequencies --   1455.9109              1456.1043              1461.3758
 Red. masses --      1.0594                 1.0546                 1.0942
 Frc consts  --      1.3230                 1.3174                 1.3768
 IR Inten    --      3.8456                 3.9334                 3.1038

                     82                     83                     84
                      A                      A                      A
 Frequencies --   1462.3461              1464.7677              1469.1865
 Red. masses --      1.0808                 1.0374                 1.1394
 Frc consts  --      1.3617                 1.3114                 1.4491
 IR Inten    --     11.3734                 9.5014                24.6282

                     85                     86                     87
                      A                      A                      A
 Frequencies --   1472.0185              1475.8027              1481.6091
 Red. masses --      1.1152                 1.0627                 1.1262
 Frc consts  --      1.4237                 1.3637                 1.4566
 IR Inten    --     22.8829                 8.6708                 1.4476

                     88                     89                     90
                      A                      A                      A
 Frequencies --   1483.7001              1486.5525              1490.5660
 Red. masses --      1.0840                 1.1026                 1.0798
 Frc consts  --      1.4060                 1.4356                 1.4135
 IR Inten    --      8.3858                16.6276                 2.5984

                     91                     92                     93
                      A                      A                      A
 Frequencies --   1517.6396              1573.0767              1717.6067
 Red. masses --      2.1494                 4.6485                10.6571
 Frc consts  --      2.9168                 6.7774                18.5240
 IR Inten    --     12.5658               643.1730               587.2194

                     94                     95                     96
                      A                      A                      A
 Frequencies --   1785.7022              3042.7616              3042.8151
 Red. masses --     11.0471                 1.0391                 1.0391
 Frc consts  --     20.7548                 5.6682                 5.6682
 IR Inten    --    493.8036                25.8226                17.5795

                     97                     98                     99
                      A                      A                      A
 Frequencies --   3046.0654              3046.2530              3070.5974
 Red. masses --      1.0415                 1.0415                 1.0844
 Frc consts  --      5.6936                 5.6942                 6.0242
 IR Inten    --     22.0127                13.9115                 9.2295

                    100                    101                    102
                      A                      A                      A
 Frequencies --   3070.7859              3087.4707              3088.0256
 Red. masses --      1.0844                 1.0788                 1.0597
 Frc consts  --      6.0249                 6.0588                 5.9538
 IR Inten    --      6.0301                40.2047                44.2089

                    103                    104                    105
                      A                      A                      A
 Frequencies --   3088.3286              3099.3929              3099.7954
 Red. masses --      1.0644                 1.0637                 1.0641
 Frc consts  --      5.9813                 6.0206                 6.0243
 IR Inten    --      2.6051                84.1241                 0.4108

                    106                    107                    108
                      A                      A                      A
 Frequencies --   3132.2995              3132.3924              3135.9571
 Red. masses --      1.1008                 1.1009                 1.0997
 Frc consts  --      6.3635                 6.3641                 6.3717
 IR Inten    --     10.1904                10.4394                25.7910

                    109                    110                    111
                      A                      A                      A
 Frequencies --   3136.1709              3152.5217              3152.5529
 Red. masses --      1.0997                 1.1034                 1.1034
 Frc consts  --      6.3728                 6.4610                 6.4613
 IR Inten    --     53.0680                10.6710                25.7243

                    112                    113                    114
                      A                      A                      A
 Frequencies --   3156.1300              3156.1917              3163.1021
 Red. masses --      1.1032                 1.1032                 1.1124
 Frc consts  --      6.4749                 6.4752                 6.5574
 IR Inten    --     18.4493                 6.9037                14.4155

                    115                    116                    117
                      A                      A                      A
 Frequencies --   3163.3078              3177.2649              3242.9936
 Red. masses --      1.1123                 1.1077                 1.1039
 Frc consts  --      6.5577                 6.5881                 6.8401
 IR Inten    --     24.9612                10.3454                 0.0863

 - Thermochemistry -
 -------------------
 Temperature   298.150 Kelvin.  Pressure   1.00000 Atm.
 Atom     1 has atomic number  6 and mass  12.00000

 Molecular mass:   253.17903 amu.
 Principal axes and moments of inertia in atomic units:
                           1         2         3
     Eigenvalues --  2412.050468170.125919314.70270
           X            0.99997   0.00023  -0.00720
           Y           -0.00023   1.00000   0.00017
           Z            0.00720  -0.00017   0.99997
 This molecule is an asymmetric top.
 Rotational symmetry number  1.
 Warning -- assumption of classical behavior for rotation
           may cause significant error
 Rotational temperatures (Kelvin)      0.03591     0.01060     0.00930
 Rotational constants (GHZ):           0.74822     0.22090     0.19375
    3 imaginary frequencies ignored.
 Zero-point vibrational energy     945078.0 (Joules/Mol)
                                  225.87907 (Kcal/Mol)
 Warning -- explicit consideration of  25 degrees of freedom as
           vibrations may cause significant error
 Vibrational temperatures:     32.94    74.03   108.06   117.68   122.03
          (Kelvin)            176.88   244.25   284.07   326.33   328.73
                              333.83   342.67   374.52   383.55   409.77
                              412.25   462.93   483.43   492.58   554.92
                              572.41   664.01   753.76   778.42   781.54
                              924.98   998.69  1040.07  1104.79  1106.86
                             1171.09  1185.71  1186.64  1308.81  1309.54
                             1327.63  1328.23  1382.09  1383.33  1384.76
                             1402.31  1448.41  1457.66  1477.92  1478.35
                             1504.92  1550.31  1560.23  1594.37  1639.12
                             1640.79  1646.92  1675.58  1675.86  1714.93
                             1739.03  1744.06  1762.85  1763.65  1819.43
                             1820.10  1834.46  1894.21  1902.75  1929.66
                             1931.29  1944.33  1949.76  1972.58  1977.10
                             2005.16  2006.24  2022.44  2023.58  2032.21
                             2094.73  2095.01  2102.59  2103.99  2107.47
                             2113.83  2117.91  2123.35  2131.70  2134.71
                             2138.82  2144.59  2183.54  2263.31  2471.25
                             2569.23  4377.86  4377.93  4382.61  4382.88
                             4417.90  4418.18  4442.18  4442.98  4443.42
                             4459.34  4459.91  4506.68  4506.81  4511.94
                             4512.25  4535.78  4535.82  4540.97  4541.06
                             4551.00  4551.29  4571.38  4665.94

 Zero-point correction=                           0.359961 (Hartree/Particle)
 Thermal correction to Energy=                    0.376971
 Thermal correction to Enthalpy=                  0.377915
 Thermal correction to Gibbs Free Energy=         0.314713
 Sum of electronic and zero-point Energies=           -822.059076
 Sum of electronic and thermal Energies=              -822.042066
 Sum of electronic and thermal Enthalpies=            -822.041121
 Sum of electronic and thermal Free Energies=         -822.104324

                     E (Thermal)             CV                S
                      KCal/Mol        Cal/Mol-Kelvin    Cal/Mol-Kelvin
 Total                  236.553             65.599            133.021
 Electronic               0.000              0.000              0.000
 Translational            0.889              2.981             42.487
 Rotational               0.889              2.981             33.573
 Vibrational            234.776             59.637             56.962
 Vibration     1          0.593              1.985              6.366
 Vibration     2          0.596              1.977              4.761
 Vibration     3          0.599              1.966              4.015
 Vibration     4          0.600              1.962              3.847
 Vibration     5          0.601              1.960              3.776
 Vibration     6          0.610              1.930              3.054
 Vibration     7          0.625              1.880              2.438
 Vibration     8          0.637              1.843              2.157
 Vibration     9          0.650              1.800              1.904
 Vibration    10          0.651              1.798              1.891
 Vibration    11          0.653              1.792              1.863
 Vibration    12          0.656              1.782              1.817
 Vibration    13          0.668              1.745              1.660
 Vibration    14          0.672              1.734              1.618
 Vibration    15          0.683              1.702              1.505
 Vibration    16          0.684              1.699              1.494
 Vibration    17          0.707              1.632              1.301
 Vibration    18          0.717              1.604              1.231
 Vibration    19          0.721              1.591              1.201
 Vibration    20          0.754              1.501              1.017
 Vibration    21          0.764              1.475              0.971
 Vibration    22          0.819              1.335              0.762
 Vibration    23          0.879              1.197              0.601
 Vibration    24          0.896              1.159              0.563
 Vibration    25          0.898              1.155              0.558

 Normal termination of Gaussian 16 at Thu Nov  3 08:23:41 2022.
