 Gaussian 16, Revision A.03,
 Gaussian 16:  ES64L-G16RevA.03 25-Dec-2016

 ----------------------------------------------------------------------
 #p pop=(regular,nbo,savenbos) freq=noraman def2svp empiricaldispersion
 =gd3bj output=wfx pbe1pbe
 ----------------------------------------------------------------------

 --------
 16_lig_b
 --------
 Symbolic Z-matrix:
 Charge =  0 Multiplicity = 1

                         Standard orientation:
 ---------------------------------------------------------------------
 Center     Atomic      Atomic             Coordinates (Angstroms)
 Number     Number       Type             X           Y           Z
 ---------------------------------------------------------------------
      1          6           0        0.033473    3.070914    0.016458
      2          7           0        0.000717    1.610605   -0.012621
      3          6           0       -1.121886    0.936435   -0.427886
      4          7           0       -1.326202   -0.326662   -0.380879
      5          6           0       -2.707268   -0.570995   -0.804464
      6          1           0       -2.682540   -1.379162   -1.551424
      7          6           0       -3.086678    0.779522   -1.430342
      8          8           0       -2.099125    1.696337   -0.912478
      9          6           0       -3.604876   -1.022180    0.375178
     10          6           0       -3.685662    0.061267    1.451865
     11          6           0       -4.997239   -1.316200   -0.188155
     12          6           0       -3.039942   -2.303558    0.992381
     13          7           0        1.320580   -0.337963    0.367343
     14          6           0        1.111115    0.923778    0.413248
     15          8           0        2.077284    1.691099    0.906529
     16          6           0        3.069271    0.780213    1.426869
     17          6           0        2.699627   -0.574434    0.801749
     18          1           0        2.673339   -1.381089    1.550259
     19          6           0        3.606761   -1.024192   -0.371166
     20          6           0        4.996562   -1.311812    0.201619
     21          6           0        3.050418   -2.308611   -0.989984
     22          6           0        3.690340    0.057887   -1.449080
     23          1           0       -0.880821    3.444839   -0.450666
     24          1           0        0.907680    3.437064   -0.536322
     25          1           0        0.094164    3.430671    1.052625
     26          1           0       -4.075480    1.157165   -1.144827
     27          1           0       -2.996762    0.782043   -2.526960
     28          1           0       -4.319934   -0.280940    2.283641
     29          1           0       -4.117673    1.004173    1.079699
     30          1           0       -2.690320    0.275707    1.871497
     31          1           0       -5.665173   -1.665628    0.613558
     32          1           0       -4.951930   -2.105875   -0.954208
     33          1           0       -5.468362   -0.428025   -0.639642
     34          1           0       -3.743285   -2.697939    1.742202
     35          1           0       -2.081102   -2.133095    1.506714
     36          1           0       -2.861802   -3.077054    0.231353
     37          1           0        2.977585    0.783721    2.523272
     38          1           0        4.056798    1.162577    1.143093
     39          1           0        4.949498   -2.100958    0.968125
     40          1           0        5.460757   -0.421183    0.655472
     41          1           0        5.671351   -1.659094   -0.595272
     42          1           0        2.869834   -3.081385   -0.228817
     43          1           0        3.760035   -2.701572   -1.734605
     44          1           0        2.094195   -2.142033   -1.510425
     45          1           0        4.117733    1.002541   -1.075897
     46          1           0        2.696776    0.268628   -1.874823
     47          1           0        4.330408   -0.283655   -2.276674
 ---------------------------------------------------------------------

 SCF Done:  E(RPBE1PBE) =  -900.902565112     A.U. after   14 cycles

 The electronic state is 1-A.
 Alpha  occ. eigenvalues --  -19.24949 -19.24841 -14.44543 -14.34118 -14.34114
 Alpha  occ. eigenvalues --  -10.34242 -10.34067 -10.28868 -10.28809 -10.27254
 Alpha  occ. eigenvalues --  -10.25567 -10.25549 -10.23921 -10.23913 -10.22173
 Alpha  occ. eigenvalues --  -10.22162 -10.21648 -10.21648 -10.20844 -10.20837
 Alpha  occ. eigenvalues --   -1.13353  -1.12455  -0.98945  -0.91129  -0.90534
 Alpha  occ. eigenvalues --   -0.83236  -0.83032  -0.78058  -0.75667  -0.72149
 Alpha  occ. eigenvalues --   -0.69544  -0.69427  -0.68748  -0.68584  -0.66176
 Alpha  occ. eigenvalues --   -0.65085  -0.63228  -0.56172  -0.55262  -0.54509
 Alpha  occ. eigenvalues --   -0.53188  -0.52375  -0.51936  -0.50866  -0.47974
 Alpha  occ. eigenvalues --   -0.47810  -0.46777  -0.45669  -0.45461  -0.44971
 Alpha  occ. eigenvalues --   -0.44873  -0.44100  -0.43605  -0.42299  -0.41390
 Alpha  occ. eigenvalues --   -0.41038  -0.39888  -0.39258  -0.38820  -0.38492
 Alpha  occ. eigenvalues --   -0.38091  -0.37506  -0.36631  -0.36387  -0.36374
 Alpha  occ. eigenvalues --   -0.36355  -0.34241  -0.34120  -0.33249  -0.33214
 Alpha  occ. eigenvalues --   -0.32741  -0.32665  -0.30149  -0.27967  -0.24403
 Alpha  occ. eigenvalues --   -0.23599  -0.22256
 Alpha virt. eigenvalues --    0.02991   0.05973   0.06435   0.08242   0.08645
 Alpha virt. eigenvalues --    0.09665   0.09787   0.10122   0.10290   0.10818
 Alpha virt. eigenvalues --    0.11344   0.12256   0.12362   0.13247   0.13950

 Mulliken charges:
               1
     1  C    0.089020
     2  N   -0.363902
     3  C    0.289738
     4  N   -0.244652
     5  C   -0.014795
     6  H    0.028884
     7  C    0.242821
     8  O   -0.361072
     9  C   -0.374259
    10  C    0.004185
    11  C    0.022391
    12  C    0.036221
    13  N   -0.238366
    14  C    0.286479
    15  O   -0.362032
    16  C    0.243892
    17  C   -0.015999
    18  H    0.028799
    19  C   -0.374805
    20  C    0.022610
    21  C    0.036219
    22  C    0.003790
    23  H    0.078008
    24  H    0.059311
    25  H    0.059067
    26  H    0.044311
    27  H    0.048161
    28  H    0.033442
    29  H    0.026447
    30  H    0.054070
    31  H    0.036338
    32  H    0.033925
    33  H    0.022973
    34  H    0.024328
    35  H    0.056795
    36  H    0.028716
    37  H    0.047471
    38  H    0.044283
    39  H    0.033880
    40  H    0.023034
    41  H    0.036282
    42  H    0.028664
    43  H    0.024335
    44  H    0.056766
    45  H    0.026341
    46  H    0.054384
    47  H    0.033504
 Sum of Mulliken charges =  -0.00000

 Dipole moment (field-independent basis, Debye):
    X=             -0.0340    Y=              1.8991    Z=             -0.0009  Tot=              1.8994
 Quadrupole moment (field-independent basis, Debye-Ang):
   XX=           -111.6684   YY=           -121.8911   ZZ=           -119.2344
   XY=             -0.0735   XZ=              4.9147   YZ=             -0.0924

  Exact polarizability: 218.342   0.775 181.681   8.605   0.513 154.964
 Approx polarizability: 255.121   0.888 269.311  12.636   0.597 219.990

 Summary of Natural Population Analysis:

                                       Natural Population
                Natural  -----------------------------------------------
    Atom  No    Charge         Core      Valence    Rydberg      Total
 -----------------------------------------------------------------------
      C    1   -0.41902      1.99931     4.40775    0.01196     6.41902
      N    2   -0.52562      1.99894     5.51471    0.01198     7.52562
      C    3    0.78810      1.99903     3.17022    0.04264     5.21190
      N    4   -0.58678      1.99929     5.57060    0.01689     7.58678
      C    5   -0.08167      1.99894     4.05450    0.02823     6.08167
      H    6    0.24137      0.00000     0.75512    0.00351     0.75863
      C    7   -0.07814      1.99903     4.05897    0.02014     6.07814
      O    8   -0.58445      1.99965     6.57464    0.01016     8.58445
      C    9   -0.08435      1.99886     4.06872    0.01677     6.08435
      C   10   -0.66124      1.99918     4.64801    0.01404     6.66124
      C   11   -0.65042      1.99918     4.63772    0.01353     6.65042
      C   12   -0.64877      1.99919     4.63502    0.01456     6.64877
      N   13   -0.58482      1.99929     5.56868    0.01685     7.58482
      C   14    0.78845      1.99904     3.17002    0.04248     5.21155
      O   15   -0.57948      1.99965     6.56954    0.01028     8.57948
      C   16   -0.07929      1.99903     4.06026    0.02001     6.07929
      C   17   -0.08185      1.99894     4.05467    0.02824     6.08185
      H   18    0.24130      0.00000     0.75520    0.00350     0.75870
      C   19   -0.08427      1.99886     4.06865    0.01676     6.08427
      C   20   -0.65042      1.99918     4.63771    0.01353     6.65042
      C   21   -0.64877      1.99918     4.63503    0.01456     6.64877
      C   22   -0.66136      1.99918     4.64817    0.01402     6.66136
      H   23    0.24509      0.00000     0.75224    0.00267     0.75491
      H   24    0.22491      0.00000     0.77242    0.00268     0.77509
      H   25    0.22105      0.00000     0.77614    0.00281     0.77895
      H   26    0.21229      0.00000     0.78475    0.00296     0.78771
      H   27    0.21259      0.00000     0.78425    0.00316     0.78741
      H   28    0.22900      0.00000     0.76846    0.00254     0.77100
      H   29    0.21957      0.00000     0.77787    0.00256     0.78043
      H   30    0.23617      0.00000     0.76104    0.00279     0.76383
      H   31    0.22968      0.00000     0.76774    0.00258     0.77032
      H   32    0.22502      0.00000     0.77231    0.00267     0.77498
      H   33    0.21696      0.00000     0.78055    0.00249     0.78304
      H   34    0.21824      0.00000     0.77920    0.00256     0.78176
      H   35    0.24639      0.00000     0.75065    0.00296     0.75361
      H   36    0.22440      0.00000     0.77313    0.00247     0.77560
      H   37    0.21254      0.00000     0.78430    0.00315     0.78746
      H   38    0.21216      0.00000     0.78490    0.00294     0.78784
      H   39    0.22502      0.00000     0.77231    0.00267     0.77498
      H   40    0.21704      0.00000     0.78047    0.00249     0.78296
      H   41    0.22961      0.00000     0.76781    0.00258     0.77039
      H   42    0.22437      0.00000     0.77316    0.00247     0.77563
      H   43    0.21823      0.00000     0.77921    0.00256     0.78177
      H   44    0.24640      0.00000     0.75064    0.00295     0.75360
      H   45    0.21944      0.00000     0.77800    0.00256     0.78056
      H   46    0.23626      0.00000     0.76095    0.00278     0.76374
      H   47    0.22907      0.00000     0.76839    0.00254     0.77093
 =======================================================================
   * Total *   -0.00000     39.98296   113.56479    0.45225   154.00000

 ******    3 imaginary frequencies (negative Signs) ******

                      1                      2                      3
                      A                      A                      A
 Frequencies --    -58.8325               -54.5258               -33.9233
 Red. masses --      4.1077                 1.9074                 1.7687
 Frc consts  --      0.0084                 0.0033                 0.0012
 IR Inten    --      0.2557                 0.5271                 0.3586

                      4                      5                      6
                      A                      A                      A
 Frequencies --     49.8724                64.4650                70.5363
 Red. masses --      3.6774                 2.8432                 2.8955
 Frc consts  --      0.0054                 0.0070                 0.0085
 IR Inten    --      0.1178                 0.0739                 0.2888

                      7                      8                      9
                      A                      A                      A
 Frequencies --     76.6645                92.6871               132.6676
 Red. masses --      2.7371                 4.8026                 3.8136
 Frc consts  --      0.0095                 0.0243                 0.0395
 IR Inten    --      0.5265                 0.3845                 2.3599

                     10                     11                     12
                      A                      A                      A
 Frequencies --    167.1493               196.1039               203.3123
 Red. masses --      2.8859                 1.5715                 1.1249
 Frc consts  --      0.0475                 0.0356                 0.0274
 IR Inten    --      0.1624                 5.0148                 0.3197

                     13                     14                     15
                      A                      A                      A
 Frequencies --    205.3902               242.0140               246.2290
 Red. masses --      1.6859                 1.7627                 1.2221
 Frc consts  --      0.0419                 0.0608                 0.0437
 IR Inten    --      2.8654                 0.0208                 0.0020

                     16                     17                     18
                      A                      A                      A
 Frequencies --    252.9256               259.5630               268.0618
 Red. masses --      1.3226                 1.2312                 1.1468
 Frc consts  --      0.0498                 0.0489                 0.0486
 IR Inten    --      0.0311                 0.1361                 0.0363

                     19                     20                     21
                      A                      A                      A
 Frequencies --    277.6817               289.7741               295.7669
 Red. masses --      1.8448                 2.7345                 2.0835
 Frc consts  --      0.0838                 0.1353                 0.1074
 IR Inten    --      0.8730                 1.5102                 0.5656

                     22                     23                     24
                      A                      A                      A
 Frequencies --    303.4854               311.7896               331.9194
 Red. masses --      2.2478                 3.5324                 4.1185
 Frc consts  --      0.1220                 0.2023                 0.2673
 IR Inten    --      0.0814                 1.0527                 2.1454

                     25                     26                     27
                      A                      A                      A
 Frequencies --    357.1886               360.4888               389.2040
 Red. masses --      2.3855                 2.3891                 2.6406
 Frc consts  --      0.1793                 0.1829                 0.2357
 IR Inten    --      0.7449                 0.6698                 1.2068

                     28                     29                     30
                      A                      A                      A
 Frequencies --    395.2802               405.8320               415.0224
 Red. masses --      2.3391                 3.2946                 2.8697
 Frc consts  --      0.2153                 0.3197                 0.2912
 IR Inten    --      1.6457                 2.1071                 0.6762

                     31                     32                     33
                      A                      A                      A
 Frequencies --    465.8147               482.3622               510.9762
 Red. masses --      2.8079                 2.4186                 2.8661
 Frc consts  --      0.3590                 0.3316                 0.4409
 IR Inten    --      2.2256                 0.0710                 3.2285

                     34                     35                     36
                      A                      A                      A
 Frequencies --    545.5256               638.3062               701.6977
 Red. masses --      3.8639                 5.2749                 5.7630
 Frc consts  --      0.6775                 1.2663                 1.6718
 IR Inten    --      1.1983                19.1597                 4.5125

                     37                     38                     39
                      A                      A                      A
 Frequencies --    721.3418               746.9653               752.5380
 Red. masses --      3.9068                 3.5831                 5.1771
 Frc consts  --      1.1977                 1.1779                 1.7274
 IR Inten    --      6.7772                 0.5418                19.0534

                     40                     41                     42
                      A                      A                      A
 Frequencies --    817.2426               819.0938               821.6575
 Red. masses --      5.3984                 5.3015                 5.6859
 Frc consts  --      2.1243                 2.0956                 2.2617
 IR Inten    --      1.6216                 4.6589                 6.8365

                     43                     44                     45
                      A                      A                      A
 Frequencies --    869.2607               869.7534               942.0199
 Red. masses --      2.0247                 2.0563                 1.3686
 Frc consts  --      0.9014                 0.9165                 0.7156
 IR Inten    --      1.4489                 6.3800                 3.8792

                     46                     47                     48
                      A                      A                      A
 Frequencies --    942.1206               946.9481               947.1772
 Red. masses --      1.3653                 1.4076                 1.4022
 Frc consts  --      0.7140                 0.7437                 0.7412
 IR Inten    --      1.1006                 0.0418                 3.4996

                     49                     50                     51
                      A                      A                      A
 Frequencies --    952.7286               952.7808               972.0774
 Red. masses --      1.4571                 1.4588                 5.9821
 Frc consts  --      0.7792                 0.7802                 3.3305
 IR Inten    --      0.8677                 1.2940                 4.6621

                     52                     53                     54
                      A                      A                      A
 Frequencies --    982.8749               987.9713               989.9670
 Red. masses --      2.6715                 1.6349                 2.1044
 Frc consts  --      1.5206                 0.9402                 1.2151
 IR Inten    --     64.1629                 2.0472                41.4437

                     55                     56                     57
                      A                      A                      A
 Frequencies --   1012.5265              1015.0002              1028.5360
 Red. masses --      2.0555                 1.9623                 2.8059
 Frc consts  --      1.2416                 1.1911                 1.7489
 IR Inten    --      0.5436                 9.8216                 7.2474

                     58                     59                     60
                      A                      A                      A
 Frequencies --   1049.7159              1058.3080              1065.7065
 Red. masses --      1.6253                 1.8316                 1.8494
 Frc consts  --      1.0552                 1.2086                 1.2376
 IR Inten    --      2.2034                 0.3139                 0.3900

                     61                     62                     63
                      A                      A                      A
 Frequencies --   1068.9632              1075.4624              1086.4261
 Red. masses --      2.5963                 2.5391                 2.8169
 Frc consts  --      1.7479                 1.7303                 1.9590
 IR Inten    --      0.3433                14.1961                11.9628

                     64                     65                     66
                      A                      A                      A
 Frequencies --   1110.2684              1143.8384              1192.9651
 Red. masses --      2.8520                 1.2892                 2.3781
 Frc consts  --      2.0714                 0.9938                 1.9940
 IR Inten    --     42.4784                 1.5462               236.5212

                     67                     68                     69
                      A                      A                      A
 Frequencies --   1213.1303              1216.2364              1232.3534
 Red. masses --      1.3709                 1.4857                 1.5373
 Frc consts  --      1.1887                 1.2948                 1.3756
 IR Inten    --      2.3662                10.5344                47.9943

                     70                     71                     72
                      A                      A                      A
 Frequencies --   1232.4185              1246.0911              1247.0309
 Red. masses --      1.5820                 2.0524                 1.9334
 Frc consts  --      1.4157                 1.8776                 1.7715
 IR Inten    --     25.2378                 1.3858                 0.9953

                     73                     74                     75
                      A                      A                      A
 Frequencies --   1270.6801              1276.9178              1284.0680
 Red. masses --      1.8694                 1.9455                 2.8117
 Frc consts  --      1.7784                 1.8690                 2.7314
 IR Inten    --     35.5287                 3.6973                13.9100

                     76                     77                     78
                      A                      A                      A
 Frequencies --   1286.7053              1287.8723              1335.2358
 Red. masses --      2.5449                 2.3285                 1.6544
 Frc consts  --      2.4824                 2.2755                 1.7378
 IR Inten    --      1.6112                 5.9587                 1.2323

                     79                     80                     81
                      A                      A                      A
 Frequencies --   1341.3398              1357.7562              1364.1464
 Red. masses --      1.4532                 1.7608                 1.6316
 Frc consts  --      1.5404                 1.9125                 1.7889
 IR Inten    --      0.6069                 3.9538                 7.8806

                     82                     83                     84
                      A                      A                      A
 Frequencies --   1379.1227              1379.6684              1385.2181
 Red. masses --      1.3393                 1.3427                 1.4545
 Frc consts  --      1.5009                 1.5059                 1.6444
 IR Inten    --      0.8418                12.0838                 9.7651

                     85                     86                     87
                      A                      A                      A
 Frequencies --   1385.4193              1405.2262              1405.7225
 Red. masses --      1.4561                 1.2734                 1.2670
 Frc consts  --      1.6466                 1.4816                 1.4751
 IR Inten    --     10.3977                22.1983                15.3848

                     88                     89                     90
                      A                      A                      A
 Frequencies --   1412.2099              1442.3208              1442.4202
 Red. masses --      1.3904                 1.0452                 1.0453
 Frc consts  --      1.6337                 1.2811                 1.2814
 IR Inten    --      1.2734                 1.0324                 0.0197

                     91                     92                     93
                      A                      A                      A
 Frequencies --   1453.2505              1453.4864              1458.2280
 Red. masses --      1.0492                 1.0486                 1.0463
 Frc consts  --      1.3055                 1.3053                 1.3109
 IR Inten    --      6.7725                 0.6906                 1.0580

                     94                     95                     96
                      A                      A                      A
 Frequencies --   1458.5700              1463.4798              1464.4883
 Red. masses --      1.0495                 1.1439                 1.0494
 Frc consts  --      1.3155                 1.4435                 1.3261
 IR Inten    --      0.7348                12.5390                12.7658

                     97                     98                     99
                      A                      A                      A
 Frequencies --   1466.9600              1473.3449              1474.7229
 Red. masses --      1.1315                 1.0946                 1.0933
 Frc consts  --      1.4346                 1.4000                 1.4010
 IR Inten    --     29.0758                 3.1214                 3.5751

                    100                    101                    102
                      A                      A                      A
 Frequencies --   1476.9890              1483.9341              1486.9145
 Red. masses --      1.0789                 1.1143                 1.0819
 Frc consts  --      1.3867                 1.4457                 1.4093
 IR Inten    --     12.1529                 5.3960                 9.5119

                    103                    104                    105
                      A                      A                      A
 Frequencies --   1493.4116              1494.0361              1515.9594
 Red. masses --      1.1029                 1.0843                 2.1602
 Frc consts  --      1.4493                 1.4260                 2.9249
 IR Inten    --      2.2980                30.4040                10.4883

                    106                    107                    108
                      A                      A                      A
 Frequencies --   1572.1551              1710.3895              1779.0077
 Red. masses --      4.6111                10.6505                10.9947
 Frc consts  --      6.7149                18.3573                20.5017
 IR Inten    --    599.9134               662.1500               466.8409

                    109                    110                    111
                      A                      A                      A
 Frequencies --   3046.8026              3046.9299              3050.2554
 Red. masses --      1.0367                 1.0367                 1.0372
 Frc consts  --      5.6702                 5.6707                 5.6858
 IR Inten    --     24.1699                21.4700                19.3736

                    112                    113                    114
                      A                      A                      A
 Frequencies --   3050.4960              3056.8190              3056.9098
 Red. masses --      1.0372                 1.0382                 1.0382
 Frc consts  --      5.6866                 5.7157                 5.7161
 IR Inten    --     23.8487                17.3808                18.5232

                    115                    116                    117
                      A                      A                      A
 Frequencies --   3087.1288              3087.4751              3087.8219
 Red. masses --      1.0424                 1.0787                 1.0726
 Frc consts  --      5.8531                 6.0587                 6.0254
 IR Inten    --     55.3927                 9.5593                 4.7555

                    118                    119                    120
                      A                      A                      A
 Frequencies --   3099.4799              3099.9616              3137.8537
 Red. masses --      1.0732                 1.0733                 1.1030
 Frc consts  --      6.0747                 6.0770                 6.3986
 IR Inten    --     84.8910                11.0734                 9.1666

                    121                    122                    123
                      A                      A                      A
 Frequencies --   3137.9650              3140.7487              3141.0362
 Red. masses --      1.1030                 1.1026                 1.1026
 Frc consts  --      6.3990                 6.4080                 6.4093
 IR Inten    --     13.1674                29.6503                33.4858

                    124                    125                    126
                      A                      A                      A
 Frequencies --   3145.2018              3145.3079              3148.1175
 Red. masses --      1.1031                 1.1032                 1.1039
 Frc consts  --      6.4293                 6.4300                 6.4458
 IR Inten    --      5.5580                 4.4609                 8.9117

                    127                    128                    129
                      A                      A                      A
 Frequencies --   3148.2615              3149.2845              3149.4200
 Red. masses --      1.1039                 1.1024                 1.1024
 Frc consts  --      6.4464                 6.4420                 6.4424
 IR Inten    --      9.1202                61.4455                 9.8957

                    130                    131                    132
                      A                      A                      A
 Frequencies --   3158.5698              3158.6477              3177.8417
 Red. masses --      1.1037                 1.1037                 1.1071
 Frc consts  --      6.4877                 6.4880                 6.5872
 IR Inten    --     28.3485                15.4561                12.5820

                    133                    134                    135
                      A                      A                      A
 Frequencies --   3178.0281              3178.3127              3241.5098
 Red. masses --      1.1070                 1.1071                 1.1041
 Frc consts  --      6.5877                 6.5889                 6.8354
 IR Inten    --      5.9445                28.7525                 0.0713

 - Thermochemistry -
 -------------------
 Temperature   298.150 Kelvin.  Pressure   1.00000 Atm.
 Atom     1 has atomic number  6 and mass  12.00000

 Molecular mass:   281.21033 amu.
 Principal axes and moments of inertia in atomic units:
                           1         2         3
     Eigenvalues --  2923.087869631.19055**********
           X            0.99997   0.00017  -0.00751
           Y           -0.00017   1.00000   0.00049
           Z            0.00751  -0.00049   0.99997
 This molecule is an asymmetric top.
 Rotational symmetry number  1.
 Warning -- assumption of classical behavior for rotation
           may cause significant error
 Rotational temperatures (Kelvin)      0.02963     0.00899     0.00796
 Rotational constants (GHZ):           0.61741     0.18739     0.16576
    3 imaginary frequencies ignored.
 Zero-point vibrational energy    1090173.8 (Joules/Mol)
                                  260.55778 (Kcal/Mol)
 Warning -- explicit consideration of  31 degrees of freedom as
           vibrations may cause significant error
 Vibrational temperatures:     71.76    92.75   101.49   110.30   133.36
          (Kelvin)            190.88   240.49   282.15   292.52   295.51
                              348.20   354.27   363.90   373.45   385.68
                              399.52   416.92   425.54   436.65   448.60
                              477.56   513.91   518.66   559.98   568.72
                              583.90   597.12   670.20   694.01   735.18
                              784.89   918.38  1009.59  1037.85  1074.72
                             1082.73  1175.83  1178.49  1182.18  1250.67
                             1251.38  1355.36  1355.50  1362.45  1362.78
                             1370.76  1370.84  1398.60  1414.14  1421.47
                             1424.34  1456.80  1460.36  1479.83  1510.31
                             1522.67  1533.31  1538.00  1547.35  1563.12
                             1597.43  1645.73  1716.41  1745.42  1749.89
                             1773.08  1773.18  1792.85  1794.20  1828.23
                             1837.20  1847.49  1851.28  1852.96  1921.11
                             1929.89  1953.51  1962.70  1984.25  1985.04
                             1993.02  1993.31  2021.81  2022.52  2031.86
                             2075.18  2075.32  2090.90  2091.24  2098.06
                             2098.56  2105.62  2107.07  2110.63  2119.81
                             2121.80  2125.06  2135.05  2139.34  2148.69
                             2149.58  2181.13  2261.98  2460.87  2559.60
                             4383.67  4383.85  4388.64  4388.98  4398.08
                             4398.21  4441.69  4442.19  4442.69  4459.46
                             4460.15  4514.67  4514.83  4518.84  4519.25
                             4525.24  4525.40  4529.44  4529.65  4531.12
                             4531.31  4544.48  4544.59  4572.21  4572.47
                             4572.88  4663.81

 Zero-point correction=                           0.415225 (Hartree/Particle)
 Thermal correction to Energy=                    0.434722
 Thermal correction to Enthalpy=                  0.435666
 Thermal correction to Gibbs Free Energy=         0.368994
 Sum of electronic and zero-point Energies=           -900.487340
 Sum of electronic and thermal Energies=              -900.467843
 Sum of electronic and thermal Enthalpies=            -900.466899
 Sum of electronic and thermal Free Energies=         -900.533571

                     E (Thermal)             CV                S
                      KCal/Mol        Cal/Mol-Kelvin    Cal/Mol-Kelvin
 Total                  272.792             77.439            140.322
 Electronic               0.000              0.000              0.000
 Translational            0.889              2.981             42.800
 Rotational               0.889              2.981             34.082
 Vibrational            271.015             71.478             63.440
 Vibration     1          0.595              1.978              4.822
 Vibration     2          0.597              1.971              4.316
 Vibration     3          0.598              1.968              4.138
 Vibration     4          0.599              1.965              3.975
 Vibration     5          0.602              1.954              3.603
 Vibration     6          0.613              1.921              2.907
 Vibration     7          0.624              1.883              2.467
 Vibration     8          0.636              1.845              2.169
 Vibration     9          0.639              1.835              2.103
 Vibration    10          0.640              1.832              2.084
 Vibration    11          0.658              1.776              1.788
 Vibration    12          0.661              1.769              1.757
 Vibration    13          0.664              1.758              1.710
 Vibration    14          0.668              1.747              1.665
 Vibration    15          0.673              1.732              1.609
 Vibration    16          0.679              1.715              1.548
 Vibration    17          0.686              1.693              1.475
 Vibration    18          0.690              1.682              1.441
 Vibration    19          0.695              1.667              1.398
 Vibration    20          0.700              1.651              1.353
 Vibration    21          0.714              1.612              1.251
 Vibration    22          0.732              1.560              1.134
 Vibration    23          0.735              1.554              1.120
 Vibration    24          0.757              1.493              1.003
 Vibration    25          0.762              1.480              0.980
 Vibration    26          0.771              1.458              0.941
 Vibration    27          0.778              1.438              0.909
 Vibration    28          0.823              1.326              0.749
 Vibration    29          0.839              1.289              0.704
 Vibration    30          0.866              1.226              0.631
 Vibration    31          0.901              1.149              0.554

 Normal termination of Gaussian 16 at Thu Nov  3 08:34:18 2022.
