 Gaussian 16, Revision A.03,
 Gaussian 16:  ES64L-G16RevA.03 25-Dec-2016

 ----------------------------------------------------------------------
 #p pop=(regular,nbo,savenbos) freq=noraman def2svp empiricaldispersion
 =gd3bj output=wfx pbe1pbe
 ----------------------------------------------------------------------

 --------
 17_lig_b
 --------
 Symbolic Z-matrix:
 Charge =  0 Multiplicity = 1

                         Standard orientation:
 ---------------------------------------------------------------------
 Center     Atomic      Atomic             Coordinates (Angstroms)
 Number     Number       Type             X           Y           Z
 ---------------------------------------------------------------------
      1          6           0        1.795142    2.368670    0.464010
      2          7           0        1.345934    1.063560   -0.013956
      3          6           0        2.213401    0.001207   -0.064940
      4          7           0        1.993828   -1.154270   -0.571161
      5          6           0        3.164122   -1.980496   -0.298795
      6          6           0        4.190825   -0.967477    0.222080
      7          8           0        3.406779    0.215810    0.485532
      8          7           0       -0.547608   -0.175567   -0.751670
      9          6           0        0.018966    0.888908   -0.326622
     10          8           0       -0.741026    1.963521   -0.145540
     11          6           0       -2.044408    1.611331   -0.659023
     12          6           0       -1.986358    0.083458   -0.824774
     13          1           0       -2.318853   -0.232318   -1.825807
     14          6           0       -2.772133   -0.732786    0.230141
     15          6           0       -4.261482   -0.450120    0.021578
     16          6           0       -2.514005   -2.226153    0.012061
     17          6           0       -2.351762   -0.348775    1.649495
     18          1           0        2.886041    2.405249    0.402748
     19          1           0        1.483854    2.535607    1.505361
     20          1           0        1.359928    3.152301   -0.166057
     21          1           0        3.478476   -2.505363   -1.210395
     22          1           0        2.887064   -2.762308    0.424223
     23          1           0        4.955817   -0.701276   -0.523139
     24          1           0        4.683876   -1.259313    1.158019
     25          1           0       -2.177115    2.139631   -1.614604
     26          1           0       -2.792717    1.966101    0.059847
     27          1           0       -4.577403   -0.739110   -0.992883
     28          1           0       -4.514145    0.612572    0.168831
     29          1           0       -4.863428   -1.029423    0.737935
     30          1           0       -2.683450   -2.519331   -1.034440
     31          1           0       -3.177021   -2.820011    0.660226
     32          1           0       -1.479466   -2.512957    0.259588
     33          1           0       -2.544050    0.711644    1.879940
     34          1           0       -1.281562   -0.551562    1.812254
     35          1           0       -2.910812   -0.947443    2.384668
 ---------------------------------------------------------------------

 SCF Done:  E(RPBE1PBE) =  -743.932716293     A.U. after   14 cycles

 The electronic state is 1-A.
 Alpha  occ. eigenvalues --  -19.24937 -19.24754 -14.44451 -14.34272 -14.33904
 Alpha  occ. eigenvalues --  -10.34109 -10.33930 -10.29295 -10.28721 -10.27230
 Alpha  occ. eigenvalues --  -10.25468 -10.25408 -10.23777 -10.22056 -10.21531
 Alpha  occ. eigenvalues --  -10.20696  -1.13258  -1.12352  -0.98877  -0.90937
 Alpha  occ. eigenvalues --   -0.90214  -0.83006  -0.78825  -0.76037  -0.72061
 Alpha  occ. eigenvalues --   -0.69364  -0.68553  -0.66223  -0.65069  -0.63204
 Alpha  occ. eigenvalues --   -0.55772  -0.54648  -0.53305  -0.52694  -0.52053
 Alpha  occ. eigenvalues --   -0.50989  -0.48049  -0.47562  -0.46224  -0.45618
 Alpha  occ. eigenvalues --   -0.44713  -0.43790  -0.43248  -0.42098  -0.41054
 Alpha  occ. eigenvalues --   -0.40948  -0.39932  -0.39062  -0.38384  -0.37633
 Alpha  occ. eigenvalues --   -0.37145  -0.36315  -0.36222  -0.34014  -0.33095
 Alpha  occ. eigenvalues --   -0.32558  -0.30324  -0.28076  -0.24497  -0.23382
 Alpha  occ. eigenvalues --   -0.22186
 Alpha virt. eigenvalues --    0.03372   0.06259   0.07388   0.08658   0.08727
 Alpha virt. eigenvalues --    0.09985   0.10507   0.10885   0.11449   0.11889
 Alpha virt. eigenvalues --    0.12433   0.12823   0.13924   0.14350   0.14994

 Mulliken charges:
               1
     1  C    0.089793
     2  N   -0.362352
     3  C    0.273782
     4  N   -0.281137
     5  C    0.063914
     6  C    0.142402
     7  O   -0.357867
     8  N   -0.237398
     9  C    0.287121
    10  O   -0.362561
    11  C    0.244642
    12  C   -0.017994
    13  H    0.029220
    14  C   -0.373935
    15  C    0.022944
    16  C    0.035642
    17  C    0.003506
    18  H    0.071631
    19  H    0.058705
    20  H    0.064153
    21  H    0.046143
    22  H    0.047973
    23  H    0.051969
    24  H    0.052552
    25  H    0.046754
    26  H    0.044842
    27  H    0.033476
    28  H    0.022518
    29  H    0.036089
    30  H    0.028558
    31  H    0.023372
    32  H    0.058012
    33  H    0.025579
    34  H    0.054579
    35  H    0.033371
 Sum of Mulliken charges =  -0.00000

 Dipole moment (field-independent basis, Debye):
    X=              1.0365    Y=              1.5205    Z=              0.8916  Tot=              2.0448
 Quadrupole moment (field-independent basis, Debye-Ang):
   XX=            -81.1571   YY=            -93.4485   ZZ=            -96.8613
   XY=             -4.0557   XZ=              1.8390   YZ=             -2.9844

  Exact polarizability: 169.605  -3.706 142.468   5.008   3.566 109.094
 Approx polarizability: 198.056   0.906 205.614   9.501  14.159 160.637

 Summary of Natural Population Analysis:

                                       Natural Population
                Natural  -----------------------------------------------
    Atom  No    Charge         Core      Valence    Rydberg      Total
 -----------------------------------------------------------------------
      C    1   -0.41838      1.99931     4.40706    0.01200     6.41838
      N    2   -0.52500      1.99895     5.51425    0.01180     7.52500
      C    3    0.77944      1.99907     3.17990    0.04159     5.22056
      N    4   -0.57252      1.99928     5.55747    0.01577     7.57252
      C    5   -0.26774      1.99921     4.25155    0.01698     6.26774
      C    6   -0.08552      1.99911     4.06953    0.01688     6.08552
      O    7   -0.58429      1.99966     6.57478    0.00986     8.58429
      N    8   -0.58392      1.99929     5.56762    0.01700     7.58392
      C    9    0.78704      1.99904     3.17141    0.04251     5.21296
      O   10   -0.58016      1.99965     6.57026    0.01025     8.58016
      C   11   -0.07923      1.99903     4.06031    0.01989     6.07923
      C   12   -0.08225      1.99895     4.05521    0.02809     6.08225
      H   13    0.24104      0.00000     0.75542    0.00354     0.75896
      C   14   -0.08398      1.99886     4.06843    0.01670     6.08398
      C   15   -0.65036      1.99918     4.63766    0.01352     6.65036
      C   16   -0.64909      1.99919     4.63536    0.01455     6.64909
      C   17   -0.66091      1.99918     4.64773    0.01400     6.66091
      H   18    0.24078      0.00000     0.75653    0.00268     0.75922
      H   19    0.21665      0.00000     0.78063    0.00272     0.78335
      H   20    0.23167      0.00000     0.76562    0.00271     0.76833
      H   21    0.22540      0.00000     0.77160    0.00301     0.77460
      H   22    0.21607      0.00000     0.77978    0.00415     0.78393
      H   23    0.20358      0.00000     0.79301    0.00341     0.79642
      H   24    0.21266      0.00000     0.78454    0.00280     0.78734
      H   25    0.21231      0.00000     0.78459    0.00310     0.78769
      H   26    0.21184      0.00000     0.78521    0.00295     0.78816
      H   27    0.22485      0.00000     0.77247    0.00267     0.77515
      H   28    0.21684      0.00000     0.78065    0.00251     0.78316
      H   29    0.22936      0.00000     0.76806    0.00258     0.77064
      H   30    0.22444      0.00000     0.77309    0.00247     0.77556
      H   31    0.21774      0.00000     0.77970    0.00256     0.78226
      H   32    0.24736      0.00000     0.74966    0.00298     0.75264
      H   33    0.21883      0.00000     0.77866    0.00251     0.78117
      H   34    0.23668      0.00000     0.76045    0.00287     0.76332
      H   35    0.22879      0.00000     0.76868    0.00253     0.77121
 =======================================================================
   * Total *   -0.00000     31.98694    89.65689    0.35616   122.00000

 ******    3 imaginary frequencies (negative Signs) ******

                      1                      2                      3
                      A                      A                      A
 Frequencies --   -103.8675               -65.1695               -44.5511
 Red. masses --      7.9789                 1.0995                 4.4875
 Frc consts  --      0.0507                 0.0028                 0.0052
 IR Inten    --      1.5791                 0.1439                 0.9525

                      4                      5                      6
                      A                      A                      A
 Frequencies --     62.5026                71.5559                96.0029
 Red. masses --      3.0088                 2.7408                 1.8265
 Frc consts  --      0.0069                 0.0083                 0.0099
 IR Inten    --      0.1474                 0.0811                 0.3922

                      7                      8                      9
                      A                      A                      A
 Frequencies --    111.2403               151.3671               176.9575
 Red. masses --      5.3516                 2.9705                 3.4893
 Frc consts  --      0.0390                 0.0401                 0.0644
 IR Inten    --      0.6478                 8.3744                 2.3050

                     10                     11                     12
                      A                      A                      A
 Frequencies --    203.7462               237.0894               249.1236
 Red. masses --      1.0916                 2.1399                 1.3082
 Frc consts  --      0.0267                 0.0709                 0.0478
 IR Inten    --      0.4311                 0.2879                 0.0139

                     13                     14                     15
                      A                      A                      A
 Frequencies --    266.3740               285.2561               302.3555
 Red. masses --      1.1585                 2.1120                 2.8881
 Frc consts  --      0.0484                 0.1013                 0.1556
 IR Inten    --      0.0827                 0.6799                 0.7003

                     16                     17                     18
                      A                      A                      A
 Frequencies --    304.2542               327.1277               355.4381
 Red. masses --      2.8290                 4.6088                 2.3541
 Frc consts  --      0.1543                 0.2906                 0.1752
 IR Inten    --      1.1220                 3.7824                 0.8004

                     19                     20                     21
                      A                      A                      A
 Frequencies --    390.5202               397.8818               414.0480
 Red. masses --      3.3418                 3.2934                 3.0070
 Frc consts  --      0.3003                 0.3072                 0.3037
 IR Inten    --      3.0766                 3.2018                 0.3923

                     22                     23                     24
                      A                      A                      A
 Frequencies --    476.6249               524.4651               631.5848
 Red. masses --      2.6320                 3.3409                 5.1901
 Frc consts  --      0.3523                 0.5414                 1.2198
 IR Inten    --      0.6665                 3.5584                22.9160

                     25                     26                     27
                      A                      A                      A
 Frequencies --    695.3643               722.6856               731.1882
 Red. masses --      5.7574                 2.8311                 4.1733
 Frc consts  --      1.6402                 0.8712                 1.3146
 IR Inten    --      1.9378                 8.2121                 4.5825

                     28                     29                     30
                      A                      A                      A
 Frequencies --    752.2450               815.9178               816.6048
 Red. masses --      4.5869                 5.1913                 5.3131
 Frc consts  --      1.5293                 2.0362                 2.0875
 IR Inten    --     14.7015                 8.1247                 4.7521

                     31                     32                     33
                      A                      A                      A
 Frequencies --    847.8769               869.8775               942.1827
 Red. masses --      1.7465                 2.0538                 1.3618
 Frc consts  --      0.7397                 0.9157                 0.7122
 IR Inten    --      3.8487                 3.5750                 2.3595

                     34                     35                     36
                      A                      A                      A
 Frequencies --    947.0338               952.3306               963.3918
 Red. masses --      1.4335                 1.4353                 4.6606
 Frc consts  --      0.7575                 0.7670                 2.5486
 IR Inten    --      1.8551                 1.0461                15.1270

                     37                     38                     39
                      A                      A                      A
 Frequencies --    977.1068               989.0016              1004.4688
 Red. masses --      4.1036                 1.6689                 3.1058
 Frc consts  --      2.3084                 0.9618                 1.8463
 IR Inten    --     55.6282                 5.4795                21.0979

                     40                     41                     42
                      A                      A                      A
 Frequencies --   1014.9943              1034.2682              1054.4667
 Red. masses --      1.9751                 3.9477                 3.5690
 Frc consts  --      1.1989                 2.4881                 2.3381
 IR Inten    --      7.9978                 7.8732                 4.1235

                     43                     44                     45
                      A                      A                      A
 Frequencies --   1056.1859              1067.7788              1079.6023
 Red. masses --      2.0721                 2.0951                 2.7801
 Frc consts  --      1.3619                 1.4074                 1.9092
 IR Inten    --      1.1921                 1.1981                10.1347

                     46                     47                     48
                      A                      A                      A
 Frequencies --   1102.9935              1107.3040              1141.5877
 Red. masses --      2.0579                 2.1396                 1.3046
 Frc consts  --      1.4751                 1.5457                 1.0017
 IR Inten    --     18.4900                28.9883                 2.3521

                     49                     50                     51
                      A                      A                      A
 Frequencies --   1189.8700              1204.2350              1214.4271
 Red. masses --      2.1465                 1.2275                 1.3934
 Frc consts  --      1.7905                 1.0488                 1.2108
 IR Inten    --    206.1785                24.5987                 9.4625

                     52                     53                     54
                      A                      A                      A
 Frequencies --   1231.3631              1233.1758              1247.0702
 Red. masses --      1.4206                 1.2459                 2.0003
 Frc consts  --      1.2691                 1.1163                 1.8329
 IR Inten    --     15.6551                30.8795                 1.1886

                     55                     56                     57
                      A                      A                      A
 Frequencies --   1269.4268              1279.8100              1287.8277
 Red. masses --      1.9053                 2.0954                 2.3899
 Frc consts  --      1.8089                 2.0222                 2.3354
 IR Inten    --     54.6811                 7.1690                 2.9097

                     58                     59                     60
                      A                      A                      A
 Frequencies --   1298.0562              1338.1680              1358.9586
 Red. masses --      2.0134                 1.5546                 1.7667
 Frc consts  --      1.9988                 1.6402                 1.9224
 IR Inten    --     21.2972                 1.7494                 1.3043

                     61                     62                     63
                      A                      A                      A
 Frequencies --   1365.2759              1379.0168              1385.4590
 Red. masses --      1.5715                 1.3443                 1.4565
 Frc consts  --      1.7258                 1.5062                 1.6472
 IR Inten    --      4.1306                 6.7826                 9.6513

                     64                     65                     66
                      A                      A                      A
 Frequencies --   1405.3257              1411.5727              1442.3113
 Red. masses --      1.2711                 1.3755                 1.0452
 Frc consts  --      1.4791                 1.6148                 1.2811
 IR Inten    --     15.5514                 1.9681                 0.4704

                     67                     68                     69
                      A                      A                      A
 Frequencies --   1453.6073              1458.9371              1461.2407
 Red. masses --      1.0481                 1.0467                 1.0936
 Frc consts  --      1.3048                 1.3126                 1.3758
 IR Inten    --      2.5950                 0.7669                13.6375

                     70                     71                     72
                      A                      A                      A
 Frequencies --   1467.0887              1470.7900              1474.4595
 Red. masses --      1.1174                 1.1523                 1.0984
 Frc consts  --      1.4170                 1.4687                 1.4070
 IR Inten    --     23.8221                24.1085                 2.9281

                     73                     74                     75
                      A                      A                      A
 Frequencies --   1476.1984              1484.0518              1490.7410
 Red. masses --      1.0898                 1.1224                 1.1340
 Frc consts  --      1.3992                 1.4565                 1.4848
 IR Inten    --      6.9395                 4.6826                 2.9403

                     76                     77                     78
                      A                      A                      A
 Frequencies --   1493.7371              1516.9236              1572.2352
 Red. masses --      1.0859                 2.1093                 4.5139
 Frc consts  --      1.4275                 2.8597                 6.5741
 IR Inten    --     17.5263                 9.8844               627.5296

                     79                     80                     81
                      A                      A                      A
 Frequencies --   1718.4582              1784.5569              3046.1226
 Red. masses --     10.2742                10.8505                 1.0367
 Frc consts  --     17.8763                20.3592                 5.6677
 IR Inten    --    486.6498               480.7638                22.5625

                     82                     83                     84
                      A                      A                      A
 Frequencies --   3049.4356              3055.5437              3084.2760
 Red. masses --      1.0372                 1.0382                 1.0437
 Frc consts  --      5.6827                 5.7110                 5.8495
 IR Inten    --     23.0164                17.3711                54.2349

                     85                     86                     87
                      A                      A                      A
 Frequencies --   3085.0538              3088.5624              3092.1532
 Red. masses --      1.0784                 1.0636                 1.0673
 Frc consts  --      6.0475                 5.9779                 6.0124
 IR Inten    --      4.8776                37.1622                48.9964

                     88                     89                     90
                      A                      A                      A
 Frequencies --   3099.5718              3137.0547              3139.6674
 Red. masses --      1.0679                 1.1029                 1.1025
 Frc consts  --      6.0450                 6.3950                 6.4032
 IR Inten    --     44.6298                 9.1063                35.0177

                     91                     92                     93
                      A                      A                      A
 Frequencies --   3141.7190              3143.6652              3147.9113
 Red. masses --      1.1032                 1.1029                 1.1039
 Frc consts  --      6.4155                 6.4221                 6.4452
 IR Inten    --     18.8463                 7.6450                 8.0906

                     94                     95                     96
                      A                      A                      A
 Frequencies --   3148.7876              3156.2406              3171.0374
 Red. masses --      1.1026                 1.1038                 1.1092
 Frc consts  --      6.4410                 6.4784                 6.5713
 IR Inten    --     28.3716                25.1123                20.7969

                     97                     98                     99
                      A                      A                      A
 Frequencies --   3175.7132              3184.7422              3236.4337
 Red. masses --      1.1082                 1.1023                 1.1060
 Frc consts  --      6.5849                 6.5869                 6.8253
 IR Inten    --     18.1786                 8.2185                 0.1811

 - Thermochemistry -
 -------------------
 Temperature   298.150 Kelvin.  Pressure   1.00000 Atm.
 Atom     1 has atomic number  6 and mass  12.00000

 Molecular mass:   225.14773 amu.
 Principal axes and moments of inertia in atomic units:
                           1         2         3
     Eigenvalues --  1789.479845546.620896648.54722
           X            0.99998   0.00598  -0.00233
           Y           -0.00597   0.99998   0.00083
           Z            0.00233  -0.00082   1.00000
 This molecule is an asymmetric top.
 Rotational symmetry number  1.
 Warning -- assumption of classical behavior for rotation
           may cause significant error
 Rotational temperatures (Kelvin)      0.04840     0.01562     0.01303
 Rotational constants (GHZ):           1.00853     0.32538     0.27145
    3 imaginary frequencies ignored.
 Zero-point vibrational energy     795337.5 (Joules/Mol)
                                  190.09022 (Kcal/Mol)
 Warning -- explicit consideration of  20 degrees of freedom as
           vibrations may cause significant error
 Vibrational temperatures:     89.93   102.95   138.13   160.05   217.78
          (Kelvin)            254.60   293.15   341.12   358.43   383.25
                              410.42   435.02   437.75   470.66   511.40
                              561.87   572.46   595.72   685.76   754.59
                              908.71  1000.47  1039.78  1052.02  1082.31
                             1173.92  1174.91  1219.91  1251.56  1355.59
                             1362.57  1370.19  1386.11  1405.84  1422.95
                             1445.21  1460.35  1488.08  1517.14  1519.62
                             1536.30  1553.31  1586.96  1593.16  1642.49
                             1711.96  1732.63  1747.29  1771.66  1774.26
                             1794.26  1826.42  1841.36  1852.90  1867.61
                             1925.33  1955.24  1964.33  1984.10  1993.37
                             2021.95  2030.94  2075.16  2091.42  2099.09
                             2102.40  2110.81  2116.14  2121.42  2123.92
                             2135.22  2144.84  2149.15  2182.51  2262.10
                             2472.48  2567.58  4382.69  4387.46  4396.25
                             4437.59  4438.70  4443.75  4448.92  4459.59
                             4513.52  4517.28  4520.23  4523.03  4529.14
                             4530.40  4541.13  4562.42  4569.14  4582.13
                             4656.51

 Zero-point correction=                           0.302928 (Hartree/Particle)
 Thermal correction to Energy=                    0.317099
 Thermal correction to Enthalpy=                  0.318044
 Thermal correction to Gibbs Free Energy=         0.262243
 Sum of electronic and zero-point Energies=           -743.629788
 Sum of electronic and thermal Energies=              -743.615617
 Sum of electronic and thermal Enthalpies=            -743.614673
 Sum of electronic and thermal Free Energies=         -743.670473

                     E (Thermal)             CV                S
                      KCal/Mol        Cal/Mol-Kelvin    Cal/Mol-Kelvin
 Total                  198.983             55.602            117.441
 Electronic               0.000              0.000              0.000
 Translational            0.889              2.981             42.137
 Rotational               0.889              2.981             32.556
 Vibrational            197.205             49.641             42.748
 Vibration     1          0.597              1.972              4.377
 Vibration     2          0.598              1.968              4.110
 Vibration     3          0.603              1.952              3.534
 Vibration     4          0.607              1.940              3.247
 Vibration     5          0.619              1.901              2.655
 Vibration     6          0.628              1.871              2.360
 Vibration     7          0.639              1.835              2.099
 Vibration     8          0.656              1.784              1.825
 Vibration     9          0.662              1.764              1.737
 Vibration    10          0.672              1.735              1.620
 Vibration    11          0.683              1.701              1.502
 Vibration    12          0.694              1.669              1.404
 Vibration    13          0.695              1.666              1.393
 Vibration    14          0.711              1.621              1.274
 Vibration    15          0.731              1.564              1.142
 Vibration    16          0.758              1.490              0.998
 Vibration    17          0.764              1.475              0.970
 Vibration    18          0.778              1.440              0.912
 Vibration    19          0.833              1.302              0.719
 Vibration    20          0.879              1.196              0.600

 Normal termination of Gaussian 16 at Thu Nov  3 08:18:32 2022.
