 Gaussian 16, Revision A.03,
 Gaussian 16:  ES64L-G16RevA.03 25-Dec-2016

 ----------------------------------------------------------------------
 #p pop=(regular,nbo,savenbos) freq=noraman def2svp empiricaldispersion
 =gd3bj output=wfx pbe1pbe
 ----------------------------------------------------------------------

 --------
 18_lig_b
 --------
 Symbolic Z-matrix:
 Charge =  0 Multiplicity = 1

                         Standard orientation:
 ---------------------------------------------------------------------
 Center     Atomic      Atomic             Coordinates (Angstroms)
 Number     Number       Type             X           Y           Z
 ---------------------------------------------------------------------
      1          6           0        0.850771    2.937454    0.422923
      2          7           0        0.680638    1.538555    0.033078
      3          6           0        1.751500    0.677145    0.013702
      4          7           0        1.783083   -0.535321   -0.403052
      5          6           0        3.137112   -1.065192   -0.102746
      6          6           0        3.908245    0.234097    0.202688
      7          8           0        2.881230    1.194943    0.492952
      8          6           0        3.714995   -1.797113   -1.302068
      9          6           0        3.041434   -1.965761    1.124658
     10          7           0       -0.932686   -0.066529   -0.662703
     11          6           0       -0.581232    1.103166   -0.285902
     12          8           0       -1.526282    2.030452   -0.182759
     13          6           0       -2.732660    1.426709   -0.694157
     14          6           0       -2.388648   -0.068410   -0.825308
     15          1           0       -2.593822   -0.441980   -1.840667
     16          6           0       -3.090355   -1.003449    0.187037
     17          6           0       -4.593349   -0.954065   -0.097331
     18          6           0       -2.593077   -2.435737   -0.020829
     19          6           0       -2.804586   -0.568993    1.624769
     20          1           0        1.919847    3.153956    0.481109
     21          1           0        0.384948    3.126114    1.400147
     22          1           0        0.378369    3.586201   -0.324271
     23          1           0        4.478528    0.601797   -0.665331
     24          1           0        4.567995    0.163345    1.076570
     25          1           0        3.709758   -1.150756   -2.192650
     26          1           0        3.116064   -2.695365   -1.510325
     27          1           0        4.752680   -2.100409   -1.093674
     28          1           0        2.680664   -1.398766    1.997592
     29          1           0        4.029138   -2.387832    1.365860
     30          1           0        2.340324   -2.785726    0.910913
     31          1           0       -2.956787    1.901630   -1.660265
     32          1           0       -3.540819    1.646696    0.014080
     33          1           0       -4.808723   -1.273918   -1.128865
     34          1           0       -5.018848    0.052662    0.044714
     35          1           0       -5.130987   -1.632339    0.582306
     36          1           0       -2.655727   -2.738504   -1.076576
     37          1           0       -3.192834   -3.133923    0.583498
     38          1           0       -1.543265   -2.565084    0.284181
     39          1           0       -3.168624    0.448337    1.843000
     40          1           0       -1.724904   -0.605284    1.838329
     41          1           0       -3.300692   -1.250059    2.332897
 ---------------------------------------------------------------------

 SCF Done:  E(RPBE1PBE) =  -822.424372882     A.U. after   14 cycles

 The electronic state is 1-A.
 Alpha  occ. eigenvalues --  -19.24865 -19.24789 -14.44475 -14.34190 -14.34029
 Alpha  occ. eigenvalues --  -10.34205 -10.33979 -10.28749 -10.28648 -10.27137
 Alpha  occ. eigenvalues --  -10.26533 -10.25485 -10.23826 -10.22123 -10.22006
 Alpha  occ. eigenvalues --  -10.21995 -10.21530 -10.20783  -1.13324  -1.12422
 Alpha  occ. eigenvalues --   -0.98839  -0.91064  -0.90471  -0.83119  -0.80882
 Alpha  occ. eigenvalues --   -0.76806  -0.72666  -0.71677  -0.69830  -0.69374
 Alpha  occ. eigenvalues --   -0.68633  -0.65668  -0.63628  -0.58835  -0.55625
 Alpha  occ. eigenvalues --   -0.54918  -0.53316  -0.52326  -0.51434  -0.50469
 Alpha  occ. eigenvalues --   -0.48097  -0.47444  -0.46320  -0.45570  -0.45159
 Alpha  occ. eigenvalues --   -0.44693  -0.43911  -0.43665  -0.41829  -0.41041
 Alpha  occ. eigenvalues --   -0.40848  -0.40352  -0.39297  -0.38852  -0.38081
 Alpha  occ. eigenvalues --   -0.37191  -0.37002  -0.36445  -0.36284  -0.35731
 Alpha  occ. eigenvalues --   -0.34033  -0.33766  -0.33170  -0.32586  -0.30278
 Alpha  occ. eigenvalues --   -0.28022  -0.24676  -0.23673  -0.22291
 Alpha virt. eigenvalues --    0.03248   0.06082   0.06988   0.08199   0.08840
 Alpha virt. eigenvalues --    0.09937   0.10425   0.10839   0.10948   0.11642
 Alpha virt. eigenvalues --    0.11768   0.12632   0.13122   0.13757   0.14367

 Mulliken charges:
               1
     1  C    0.089578
     2  N   -0.365357
     3  C    0.296707
     4  N   -0.227540
     5  C   -0.372483
     6  C    0.300522
     7  O   -0.357506
     8  C    0.043468
     9  C    0.050566
    10  N   -0.239940
    11  C    0.288481
    12  O   -0.362679
    13  C    0.245587
    14  C   -0.018619
    15  H    0.030039
    16  C   -0.374504
    17  C    0.021190
    18  C    0.035431
    19  C    0.003103
    20  H    0.075523
    21  H    0.058524
    22  H    0.060640
    23  H    0.033033
    24  H    0.037920
    25  H    0.037132
    26  H    0.051272
    27  H    0.030990
    28  H    0.035048
    29  H    0.029452
    30  H    0.055688
    31  H    0.046328
    32  H    0.045540
    33  H    0.033514
    34  H    0.023360
    35  H    0.036506
    36  H    0.027877
    37  H    0.023931
    38  H    0.057516
    39  H    0.024904
    40  H    0.055709
    41  H    0.033546
 Sum of Mulliken charges =  -0.00000

 Dipole moment (field-independent basis, Debye):
    X=              0.4805    Y=              1.7592    Z=              0.5681  Tot=              1.9100
 Quadrupole moment (field-independent basis, Debye-Ang):
   XX=            -95.0628   YY=           -107.0059   ZZ=           -109.5933
   XY=             -1.4092   XZ=              2.0186   YZ=             -2.0000

  Exact polarizability: 194.323  -3.173 165.858   3.585   2.566 130.492
 Approx polarizability: 229.203  -1.361 236.870   6.968  12.788 188.992

 Summary of Natural Population Analysis:

                                       Natural Population
                Natural  -----------------------------------------------
    Atom  No    Charge         Core      Valence    Rydberg      Total
 -----------------------------------------------------------------------
      C    1   -0.41918      1.99931     4.40785    0.01202     6.41918
      N    2   -0.52445      1.99894     5.51359    0.01192     7.52445
      C    3    0.78664      1.99905     3.17091    0.04340     5.21336
      N    4   -0.58829      1.99929     5.57050    0.01850     7.58829
      C    5    0.09536      1.99889     3.88330    0.02245     5.90464
      C    6   -0.06847      1.99894     4.04752    0.02201     6.06847
      O    7   -0.58513      1.99965     6.57531    0.01016     8.58513
      C    8   -0.64987      1.99914     4.63786    0.01287     6.64987
      C    9   -0.65556      1.99914     4.64284    0.01358     6.65556
      N   10   -0.58520      1.99929     5.56910    0.01681     7.58520
      C   11    0.78861      1.99904     3.17022    0.04213     5.21139
      O   12   -0.57907      1.99965     6.56913    0.01029     8.57907
      C   13   -0.07857      1.99904     4.05990    0.01964     6.07857
      C   14   -0.08219      1.99895     4.05531    0.02793     6.08219
      H   15    0.23994      0.00000     0.75644    0.00362     0.76006
      C   16   -0.08388      1.99885     4.06846    0.01656     6.08388
      C   17   -0.65071      1.99918     4.63806    0.01347     6.65071
      C   18   -0.64862      1.99919     4.63488    0.01456     6.64862
      C   19   -0.66068      1.99918     4.64744    0.01406     6.66068
      H   20    0.24404      0.00000     0.75323    0.00273     0.75596
      H   21    0.21909      0.00000     0.77821    0.00270     0.78091
      H   22    0.22756      0.00000     0.76970    0.00275     0.77244
      H   23    0.20467      0.00000     0.79199    0.00335     0.79533
      H   24    0.21480      0.00000     0.78234    0.00286     0.78520
      H   25    0.23029      0.00000     0.76662    0.00308     0.76971
      H   26    0.23754      0.00000     0.75957    0.00289     0.76246
      H   27    0.21867      0.00000     0.77883    0.00250     0.78133
      H   28    0.22681      0.00000     0.77069    0.00250     0.77319
      H   29    0.21816      0.00000     0.77918    0.00267     0.78184
      H   30    0.23947      0.00000     0.75742    0.00311     0.76053
      H   31    0.21234      0.00000     0.78462    0.00304     0.78766
      H   32    0.21095      0.00000     0.78609    0.00296     0.78905
      H   33    0.22479      0.00000     0.77253    0.00268     0.77521
      H   34    0.21710      0.00000     0.78039    0.00250     0.78290
      H   35    0.22970      0.00000     0.76772    0.00258     0.77030
      H   36    0.22401      0.00000     0.77351    0.00248     0.77599
      H   37    0.21818      0.00000     0.77927    0.00255     0.78182
      H   38    0.24627      0.00000     0.75073    0.00300     0.75373
      H   39    0.21814      0.00000     0.77939    0.00247     0.78186
      H   40    0.23822      0.00000     0.75877    0.00300     0.76178
      H   41    0.22852      0.00000     0.76897    0.00251     0.77148
 =======================================================================
   * Total *   -0.00000     35.98472   101.60840    0.40688   138.00000

 ******    3 imaginary frequencies (negative Signs) ******

                      1                      2                      3
                      A                      A                      A
 Frequencies --    -68.8457               -60.6683               -43.8436
 Red. masses --      5.1632                 1.3409                 2.5512
 Frc consts  --      0.0144                 0.0029                 0.0029
 IR Inten    --      0.1360                 0.4174                 0.7422

                      4                      5                      6
                      A                      A                      A
 Frequencies --     50.2308                68.9931                77.7963
 Red. masses --      3.1295                 2.7951                 2.9234
 Frc consts  --      0.0047                 0.0078                 0.0104
 IR Inten    --      0.0500                 0.0607                 0.5775

                      7                      8                      9
                      A                      A                      A
 Frequencies --     89.3621               140.0040               147.2706
 Red. masses --      4.3922                 2.9064                 3.7326
 Frc consts  --      0.0207                 0.0336                 0.0477
 IR Inten    --      0.2874                 4.9885                 0.5814

                     10                     11                     12
                      A                      A                      A
 Frequencies --    194.6492               215.4686               235.2199
 Red. masses --      1.1252                 2.7208                 1.2605
 Frc consts  --      0.0251                 0.0744                 0.0411
 IR Inten    --      0.6237                 2.7948                 0.0705

                     13                     14                     15
                      A                      A                      A
 Frequencies --    243.6437               255.2098               269.5957
 Red. masses --      1.2523                 1.4654                 1.2574
 Frc consts  --      0.0438                 0.0562                 0.0538
 IR Inten    --      0.0407                 0.1526                 0.4107

                     16                     17                     18
                      A                      A                      A
 Frequencies --    273.2345               294.8297               299.4368
 Red. masses --      1.8145                 1.4834                 2.1665
 Frc consts  --      0.0798                 0.0760                 0.1144
 IR Inten    --      0.2018                 0.3981                 0.4890

                     19                     20                     21
                      A                      A                      A
 Frequencies --    313.1552               314.3360               338.6372
 Red. masses --      2.9280                 2.7280                 2.3435
 Frc consts  --      0.1692                 0.1588                 0.1583
 IR Inten    --      0.2227                 1.2119                 1.4470

                     22                     23                     24
                      A                      A                      A
 Frequencies --    358.0600               387.8368               397.6554
 Red. masses --      2.3930                 2.4902                 2.3825
 Frc consts  --      0.1808                 0.2207                 0.2220
 IR Inten    --      1.0676                 1.1535                 0.2999

                     25                     26                     27
                      A                      A                      A
 Frequencies --    405.0228               438.6484               481.6621
 Red. masses --      3.8297                 2.8658                 3.3019
 Frc consts  --      0.3702                 0.3249                 0.4513
 IR Inten    --      3.4699                 1.0513                 4.7302

                     28                     29                     30
                      A                      A                      A
 Frequencies --    483.1089               530.4880               611.4586
 Red. masses --      2.6441                 3.3451                 4.0411
 Frc consts  --      0.3636                 0.5546                 0.8902
 IR Inten    --      0.2821                 2.7402                 6.7512

                     31                     32                     33
                      A                      A                      A
 Frequencies --    655.0887               702.3255               736.0023
 Red. masses --      4.8460                 5.8248                 6.0502
 Frc consts  --      1.2253                 1.6928                 1.9310
 IR Inten    --     20.8480                 2.6567                 9.3172

                     34                     35                     36
                      A                      A                      A
 Frequencies --    755.6356               809.9541               812.1594
 Red. masses --      4.5908                 5.4350                 4.7630
 Frc consts  --      1.5444                 2.1007                 1.8510
 IR Inten    --     14.9743                 5.4361                 4.8927

                     37                     38                     39
                      A                      A                      A
 Frequencies --    843.5977               871.9291               912.5288
 Red. masses --      3.5153                 2.0734                 2.6831
 Frc consts  --      1.4739                 0.9287                 1.3164
 IR Inten    --      3.5374                 3.2972                 1.1953

                     40                     41                     42
                      A                      A                      A
 Frequencies --    941.7788               942.1939               946.9422
 Red. masses --      1.6711                 1.3584                 1.4045
 Frc consts  --      0.8733                 0.7105                 0.7420
 IR Inten    --      6.0454                 1.6579                 1.5785

                     43                     44                     45
                      A                      A                      A
 Frequencies --    953.1178               959.9803               975.1087
 Red. masses --      1.4650                 1.3573                 4.6623
 Frc consts  --      0.7841                 0.7370                 2.6119
 IR Inten    --      1.0342                 2.6775                15.7590

                     46                     47                     48
                      A                      A                      A
 Frequencies --    986.0332               990.2935              1005.6183
 Red. masses --      2.0467                 1.7532                 2.4494
 Frc consts  --      1.1724                 1.0130                 1.4594
 IR Inten    --     26.2490                15.6123                25.9301

                     49                     50                     51
                      A                      A                      A
 Frequencies --   1016.3327              1029.5535              1050.1729
 Red. masses --      1.9777                 1.5464                 2.0663
 Frc consts  --      1.2036                 0.9658                 1.3426
 IR Inten    --     10.3553                 3.9150                 3.5848

                     52                     53                     54
                      A                      A                      A
 Frequencies --   1061.4655              1071.7141              1082.3577
 Red. masses --      2.6778                 2.5358                 2.8339
 Frc consts  --      1.7776                 1.7161                 1.9561
 IR Inten    --      5.6935                 3.0983                 3.1951

                     55                     56                     57
                      A                      A                      A
 Frequencies --   1100.5577              1142.9382              1185.7435
 Red. masses --      2.6601                 1.2954                 2.2668
 Frc consts  --      1.8984                 0.9970                 1.8778
 IR Inten    --     37.4648                 1.8370               223.0686

                     58                     59                     60
                      A                      A                      A
 Frequencies --   1192.9469              1213.0220              1219.6785
 Red. masses --      1.9895                 1.4417                 1.7155
 Frc consts  --      1.6681                 1.2498                 1.5036
 IR Inten    --     30.1783                17.9668                85.0330

                     61                     62                     63
                      A                      A                      A
 Frequencies --   1232.8368              1248.3972              1252.9995
 Red. masses --      1.5070                 2.0684                 1.9790
 Frc consts  --      1.3495                 1.8993                 1.8306
 IR Inten    --     32.0940                 1.1429                 1.4796

                     64                     65                     66
                      A                      A                      A
 Frequencies --   1276.9700              1279.3848              1288.5476
 Red. masses --      2.5208                 2.2094                 2.4166
 Frc consts  --      2.4219                 2.1307                 2.3640
 IR Inten    --     29.1970                 1.3003                18.2146

                     67                     68                     69
                      A                      A                      A
 Frequencies --   1289.0010              1336.5254              1358.1341
 Red. masses --      2.3042                 1.5935                 1.7848
 Frc consts  --      2.2557                 1.6771                 1.9397
 IR Inten    --      9.2903                 0.7618                11.3779

                     70                     71                     72
                      A                      A                      A
 Frequencies --   1365.3756              1379.0577              1381.7792
 Red. masses --      1.5968                 1.3613                 1.4945
 Frc consts  --      1.7539                 1.5253                 1.6812
 IR Inten    --      9.3800                 4.8557                14.3764

                     73                     74                     75
                      A                      A                      A
 Frequencies --   1386.0633              1388.7547              1405.5479
 Red. masses --      1.4702                 1.3701                 1.2801
 Frc consts  --      1.6642                 1.5569                 1.4900
 IR Inten    --     10.7182                16.3743                16.1037

                     76                     77                     78
                      A                      A                      A
 Frequencies --   1410.4770              1442.6527              1445.8835
 Red. masses --      1.3812                 1.0452                 1.0484
 Frc consts  --      1.6189                 1.2816                 1.2913
 IR Inten    --      2.5846                 0.4149                 1.1700

                     79                     80                     81
                      A                      A                      A
 Frequencies --   1452.5167              1454.0357              1459.1794
 Red. masses --      1.0531                 1.0469                 1.0453
 Frc consts  --      1.3091                 1.3041                 1.3113
 IR Inten    --      1.5660                 1.9528                 0.9525

                     82                     83                     84
                      A                      A                      A
 Frequencies --   1462.5464              1466.8064              1467.6196
 Red. masses --      1.1296                 1.1312                 1.1004
 Frc consts  --      1.4236                 1.4340                 1.3965
 IR Inten    --     13.8813                34.1011                 5.2328

                     85                     86                     87
                      A                      A                      A
 Frequencies --   1468.9878              1474.2526              1475.5916
 Red. masses --      1.0990                 1.0688                 1.1029
 Frc consts  --      1.3973                 1.3687                 1.4148
 IR Inten    --      4.7291                18.7496                 5.5288

                     88                     89                     90
                      A                      A                      A
 Frequencies --   1481.3436              1486.9507              1494.1307
 Red. masses --      1.1257                 1.0856                 1.0951
 Frc consts  --      1.4554                 1.4142                 1.4404
 IR Inten    --      0.6394                 6.6176                16.5279

                     91                     92                     93
                      A                      A                      A
 Frequencies --   1513.6538              1569.6424              1708.0634
 Red. masses --      2.0395                 4.5630                11.0084
 Frc consts  --      2.7531                 6.6237                18.9227
 IR Inten    --     16.7305               578.9210               616.6107

                     94                     95                     96
                      A                      A                      A
 Frequencies --   1780.4367              3046.3019              3048.8135
 Red. masses --     11.1332                 1.0368                 1.0350
 Frc consts  --     20.7934                 5.6686                 5.6681
 IR Inten    --    505.5098                22.0771                16.2335

                     97                     98                     99
                      A                      A                      A
 Frequencies --   3049.4098              3055.8170              3057.0126
 Red. masses --      1.0374                 1.0361                 1.0384
 Frc consts  --      5.6838                 5.7006                 5.7178
 IR Inten    --     22.7965                15.2824                18.7746

                    100                    101                    102
                      A                      A                      A
 Frequencies --   3078.0165              3082.6887              3088.0729
 Red. masses --      1.0639                 1.0850                 1.0377
 Frc consts  --      5.9385                 6.0748                 5.8306
 IR Inten    --     43.3951                23.2350                34.6101

                    103                    104                    105
                      A                      A                      A
 Frequencies --   3100.4782              3137.2137              3139.0015
 Red. masses --      1.0651                 1.1029                 1.1024
 Frc consts  --      6.0326                 6.3956                 6.3999
 IR Inten    --     44.5281                 3.8301                39.7982

                    106                    107                    108
                      A                      A                      A
 Frequencies --   3146.5083              3148.3405              3148.3565
 Red. masses --      1.1036                 1.1043                 1.1038
 Frc consts  --      6.4373                 6.4491                 6.4464
 IR Inten    --      1.4947                16.5504                15.2608

                    109                    110                    111
                      A                      A                      A
 Frequencies --   3150.5828              3155.4153              3156.0202
 Red. masses --      1.1025                 1.1041                 1.1033
 Frc consts  --      6.4480                 6.4769                 6.4747
 IR Inten    --     34.6010                18.7000                19.9476

                    112                    113                    114
                      A                      A                      A
 Frequencies --   3165.8471              3169.8998              3171.2574
 Red. masses --      1.1065                 1.1061                 1.1053
 Frc consts  --      6.5342                 6.5485                 6.5493
 IR Inten    --      1.4123                25.0495                12.8881

                    115                    116                    117
                      A                      A                      A
 Frequencies --   3174.0786              3181.2530              3244.2385
 Red. masses --      1.1090                 1.1056                 1.1043
 Frc consts  --      6.5831                 6.5922                 6.8479
 IR Inten    --     17.9954                 9.3100                 0.0763

 - Thermochemistry -
 -------------------
 Temperature   298.150 Kelvin.  Pressure   1.00000 Atm.
 Atom     1 has atomic number  6 and mass  12.00000

 Molecular mass:   253.17903 amu.
 Principal axes and moments of inertia in atomic units:
                           1         2         3
     Eigenvalues --  2532.227797030.239518569.80399
           X            0.99999  -0.00098  -0.00361
           Y            0.00098   1.00000   0.00005
           Z            0.00361  -0.00005   0.99999
 This molecule is an asymmetric top.
 Rotational symmetry number  1.
 Warning -- assumption of classical behavior for rotation
           may cause significant error
 Rotational temperatures (Kelvin)      0.03420     0.01232     0.01011
 Rotational constants (GHZ):           0.71271     0.25671     0.21059
    3 imaginary frequencies ignored.
 Zero-point vibrational energy     941225.1 (Joules/Mol)
                                  224.95821 (Kcal/Mol)
 Warning -- explicit consideration of  27 degrees of freedom as
           vibrations may cause significant error
 Vibrational temperatures:     72.27    99.27   111.93   128.57   201.43
          (Kelvin)            211.89   280.06   310.01   338.43   350.55
                              367.19   387.89   393.12   424.19   430.82
                              450.56   452.26   487.22   515.17   558.01
                              572.14   582.74   631.12   693.00   695.09
                              763.25   879.75   942.53  1010.49  1058.94
                             1087.19  1165.34  1168.52  1213.75  1254.51
                             1312.93  1355.01  1355.61  1362.44  1371.32
                             1381.20  1402.96  1418.68  1424.81  1446.86
                             1462.28  1481.30  1510.96  1527.21  1541.96
                             1557.27  1583.46  1644.43  1706.02  1716.38
                             1745.27  1754.85  1773.78  1796.17  1802.79
                             1837.27  1840.75  1853.93  1854.58  1922.96
                             1954.05  1964.47  1984.16  1988.07  1994.24
                             1998.11  2022.27  2029.36  2075.66  2080.30
                             2089.85  2092.03  2099.43  2104.28  2110.41
                             2111.58  2113.55  2121.12  2123.05  2131.32
                             2139.39  2149.72  2177.81  2258.37  2457.52
                             2561.65  4382.95  4386.56  4387.42  4396.64
                             4398.36  4428.58  4435.30  4443.05  4460.90
                             4513.75  4516.32  4527.12  4529.76  4529.78
                             4532.99  4539.94  4540.81  4554.95  4560.78
                             4562.73  4566.79  4577.11  4667.74

 Zero-point correction=                           0.358494 (Hartree/Particle)
 Thermal correction to Energy=                    0.375414
 Thermal correction to Enthalpy=                  0.376358
 Thermal correction to Gibbs Free Energy=         0.315020
 Sum of electronic and zero-point Energies=           -822.065879
 Sum of electronic and thermal Energies=              -822.048959
 Sum of electronic and thermal Enthalpies=            -822.048015
 Sum of electronic and thermal Free Energies=         -822.109353

                     E (Thermal)             CV                S
                      KCal/Mol        Cal/Mol-Kelvin    Cal/Mol-Kelvin
 Total                  235.576             67.157            129.097
 Electronic               0.000              0.000              0.000
 Translational            0.889              2.981             42.487
 Rotational               0.889              2.981             33.389
 Vibrational            233.798             61.195             53.221
 Vibration     1          0.595              1.978              4.808
 Vibration     2          0.598              1.969              4.182
 Vibration     3          0.599              1.964              3.946
 Vibration     4          0.602              1.957              3.674
 Vibration     5          0.615              1.913              2.804
 Vibration     6          0.617              1.906              2.707
 Vibration     7          0.635              1.847              2.183
 Vibration     8          0.645              1.817              1.997
 Vibration     9          0.655              1.787              1.839
 Vibration    10          0.659              1.773              1.776
 Vibration    11          0.666              1.754              1.694
 Vibration    12          0.674              1.729              1.599
 Vibration    13          0.676              1.723              1.576
 Vibration    14          0.689              1.683              1.446
 Vibration    15          0.692              1.675              1.420
 Vibration    16          0.701              1.649              1.346
 Vibration    17          0.702              1.646              1.339
 Vibration    18          0.719              1.598              1.219
 Vibration    19          0.733              1.559              1.131
 Vibration    20          0.756              1.496              1.008
 Vibration    21          0.764              1.475              0.971
 Vibration    22          0.770              1.459              0.944
 Vibration    23          0.799              1.386              0.831
 Vibration    24          0.838              1.291              0.706
 Vibration    25          0.839              1.288              0.702
 Vibration    26          0.885              1.183              0.586
 Vibration    27          0.971              1.008              0.430

 Normal termination of Gaussian 16 at Thu Nov  3 08:24:39 2022.
