 Gaussian 16, Revision A.03,
 Gaussian 16:  ES64L-G16RevA.03 25-Dec-2016

 ----------------------------------------------------------------------
 #p pop=(regular,nbo,savenbos) freq=noraman def2svp empiricaldispersion
 =gd3bj output=wfx pbe1pbe
 ----------------------------------------------------------------------

 --------
 20_lig_b
 --------
 Symbolic Z-matrix:
 Charge =  0 Multiplicity = 1

                         Standard orientation:
 ---------------------------------------------------------------------
 Center     Atomic      Atomic             Coordinates (Angstroms)
 Number     Number       Type             X           Y           Z
 ---------------------------------------------------------------------
      1          6           0        4.611964    1.427576    1.329177
      2          6           0        4.395028    1.828804    0.012176
      3          6           0        3.577961    1.074191   -0.826145
      4          6           0        2.966049   -0.090577   -0.349270
      5          6           0        3.172918   -0.479002    0.978112
      6          6           0        3.998431    0.272429    1.811810
      7          6           0        2.007814   -0.829359   -1.258505
      8          1           0        2.296508   -0.663642   -2.306355
      9          6           0        1.746765   -2.308060   -0.952157
     10          8           0        0.460315   -2.314793   -0.308542
     11          6           0       -0.088337   -1.113712   -0.524173
     12          7           0        0.667166   -0.250004   -1.088671
     13          7           0       -1.571577    1.452135   -0.624910
     14          6           0       -2.158572    0.322757   -0.137303
     15          6           0       -1.472270   -0.935483   -0.085527
     16          6           0       -2.121553   -2.053089    0.417979
     17          6           0       -3.443930   -1.997515    0.888861
     18          6           0       -4.121171   -0.803810    0.860062
     19          6           0       -3.500574    0.365193    0.356849
     20          6           0       -4.190500    1.600696    0.331678
     21          6           0       -3.561335    2.716816   -0.152920
     22          6           0       -2.240739    2.591897   -0.623667
     23          1           0        5.254422    2.020282    1.984722
     24          1           0        4.857661    2.742099   -0.368164
     25          1           0        3.380371    1.400250   -1.851737
     26          1           0        2.681081   -1.370130    1.378342
     27          1           0        4.157461   -0.042465    2.845965
     28          1           0        2.477470   -2.766503   -0.274992
     29          1           0        1.668069   -2.914607   -1.866802
     30          1           0       -1.573943   -2.995549    0.444649
     31          1           0       -3.920080   -2.900331    1.275372
     32          1           0       -5.149094   -0.733058    1.224029
     33          1           0       -5.217010    1.642539    0.705045
     34          1           0       -4.052452    3.690308   -0.185430
     35          1           0       -1.679789    3.455719   -1.003473
 ---------------------------------------------------------------------

 SCF Done:  E(RPBE1PBE) =  -877.458591076     A.U. after   14 cycles

 The electronic state is 1-A.
 Alpha  occ. eigenvalues --  -19.24269 -14.38068 -14.35594 -10.31310 -10.28933
 Alpha  occ. eigenvalues --  -10.28127 -10.27267 -10.26540 -10.26016 -10.25648
 Alpha  occ. eigenvalues --  -10.25594 -10.25326 -10.25060 -10.24903 -10.24835
 Alpha  occ. eigenvalues --  -10.24099 -10.23569 -10.23522 -10.23459 -10.23403
 Alpha  occ. eigenvalues --  -10.23301  -1.11624  -0.96342  -0.91323  -0.88010
 Alpha  occ. eigenvalues --   -0.87021  -0.83637  -0.80449  -0.77500  -0.76966
 Alpha  occ. eigenvalues --   -0.75845  -0.73935  -0.66732  -0.66552  -0.64751
 Alpha  occ. eigenvalues --   -0.63989  -0.61706  -0.59371  -0.57672  -0.54713
 Alpha  occ. eigenvalues --   -0.54263  -0.53034  -0.52676  -0.50831  -0.49514
 Alpha  occ. eigenvalues --   -0.47851  -0.46557  -0.46215  -0.45577  -0.44697
 Alpha  occ. eigenvalues --   -0.43992  -0.43589  -0.42917  -0.42170  -0.41806
 Alpha  occ. eigenvalues --   -0.41735  -0.39438  -0.38630  -0.37607  -0.37208
 Alpha  occ. eigenvalues --   -0.36561  -0.36036  -0.35650  -0.34468  -0.32316
 Alpha  occ. eigenvalues --   -0.27963  -0.27229  -0.26522  -0.26308  -0.25904
 Alpha  occ. eigenvalues --   -0.23995  -0.23687
 Alpha virt. eigenvalues --   -0.06725  -0.02099  -0.01062  -0.00073   0.00470
 Alpha virt. eigenvalues --    0.06558   0.07011   0.07570   0.08857   0.09159
 Alpha virt. eigenvalues --    0.09948   0.10979   0.11560   0.12888   0.13062

 Mulliken charges:
               1
     1  C   -0.012123
     2  C   -0.020567
     3  C   -0.003716
     4  C    0.017382
     5  C   -0.037345
     6  C   -0.019255
     7  C   -0.049028
     8  H    0.035122
     9  C    0.254776
    10  O   -0.359330
    11  C    0.162568
    12  N   -0.196774
    13  N   -0.119111
    14  C    0.049241
    15  C   -0.035876
    16  C   -0.013537
    17  C    0.000785
    18  C   -0.009207
    19  C   -0.032436
    20  C    0.035388
    21  C   -0.049604
    22  C    0.052311
    23  H    0.020074
    24  H    0.019593
    25  H    0.015578
    26  H    0.021242
    27  H    0.018246
    28  H    0.045626
    29  H    0.048478
    30  H    0.034715
    31  H    0.025369
    32  H    0.010789
    33  H    0.019807
    34  H    0.028552
    35  H    0.042265
 Sum of Mulliken charges =  -0.00000

 Dipole moment (field-independent basis, Debye):
    X=             -1.4739    Y=             -0.6127    Z=              0.7433  Tot=              1.7607
 Quadrupole moment (field-independent basis, Debye-Ang):
   XX=           -101.9970   YY=           -108.2758   ZZ=           -117.9679
   XY=             -2.5675   XZ=             -4.2149   YZ=             -0.4661

  Exact polarizability: 247.244  13.805 229.201 -14.535 -19.757 144.823
 Approx polarizability: 334.025  33.898 386.849 -36.307 -53.132 245.365

 Summary of Natural Population Analysis:

                                       Natural Population
                Natural  -----------------------------------------------
    Atom  No    Charge         Core      Valence    Rydberg      Total
 -----------------------------------------------------------------------
      C    1   -0.23206      1.99895     4.21806    0.01505     6.23206
      C    2   -0.22046      1.99895     4.20637    0.01514     6.22046
      C    3   -0.20897      1.99888     4.19394    0.01615     6.20897
      C    4   -0.04831      1.99886     4.02975    0.01970     6.04831
      C    5   -0.23016      1.99889     4.21631    0.01496     6.23016
      C    6   -0.21929      1.99895     4.20493    0.01541     6.21929
      C    7   -0.10052      1.99896     4.07683    0.02473     6.10052
      H    8    0.24683      0.00000     0.74983    0.00335     0.75317
      C    9   -0.07956      1.99906     4.06095    0.01955     6.07956
      O   10   -0.57893      1.99966     6.56913    0.01014     8.57893
      C   11    0.58794      1.99901     3.37032    0.04274     5.41206
      N   12   -0.50258      1.99931     5.48719    0.01609     7.50258
      N   13   -0.44881      1.99926     5.43278    0.01677     7.44881
      C   14    0.21901      1.99884     3.75743    0.02472     5.78099
      C   15   -0.10900      1.99882     4.09187    0.01831     6.10900
      C   16   -0.18301      1.99897     4.16848    0.01557     6.18301
      C   17   -0.22652      1.99893     4.21217    0.01542     6.22652
      C   18   -0.18540      1.99893     4.17059    0.01588     6.18540
      C   19   -0.09861      1.99887     4.08424    0.01550     6.09861
      C   20   -0.16825      1.99892     4.15306    0.01627     6.16825
      C   21   -0.27252      1.99894     4.25931    0.01427     6.27252
      C   22    0.07536      1.99906     3.90111    0.02447     5.92464
      H   23    0.22979      0.00000     0.76750    0.00272     0.77021
      H   24    0.23008      0.00000     0.76717    0.00275     0.76992
      H   25    0.23314      0.00000     0.76396    0.00290     0.76686
      H   26    0.22948      0.00000     0.76703    0.00348     0.77052
      H   27    0.23003      0.00000     0.76723    0.00275     0.76997
      H   28    0.21613      0.00000     0.78077    0.00310     0.78387
      H   29    0.21215      0.00000     0.78471    0.00314     0.78785
      H   30    0.25275      0.00000     0.74382    0.00342     0.74725
      H   31    0.23615      0.00000     0.76118    0.00267     0.76385
      H   32    0.23005      0.00000     0.76687    0.00308     0.76995
      H   33    0.23345      0.00000     0.76363    0.00292     0.76655
      H   34    0.23612      0.00000     0.76091    0.00297     0.76388
      H   35    0.21452      0.00000     0.78259    0.00289     0.78548
 =======================================================================
   * Total *    0.00000     41.97900   101.59201    0.42899   144.00000

 ******    1 imaginary frequencies (negative Signs) ******

                      1                      2                      3
                      A                      A                      A
 Frequencies --    -56.8277                20.7300                34.8402
 Red. masses --      7.6671                 5.2480                 3.7799
 Frc consts  --      0.0146                 0.0013                 0.0027
 IR Inten    --      0.2046                 0.5643                 0.2076

                      4                      5                      6
                      A                      A                      A
 Frequencies --     57.4817                79.6374               130.3454
 Red. masses --      5.3717                 5.5399                 5.3061
 Frc consts  --      0.0105                 0.0207                 0.0531
 IR Inten    --      0.5567                 2.1106                 1.2836

                      7                      8                      9
                      A                      A                      A
 Frequencies --    162.6137               183.6163               236.6548
 Red. masses --      4.5561                 4.1556                 4.3680
 Frc consts  --      0.0710                 0.0825                 0.1441
 IR Inten    --      0.5971                 4.4846                 1.2979

                     10                     11                     12
                      A                      A                      A
 Frequencies --    242.8593               286.5762               297.0930
 Red. masses --      2.7455                 6.1674                 5.7092
 Frc consts  --      0.0954                 0.2984                 0.2969
 IR Inten    --      0.3643                 0.1940                 0.3876

                     13                     14                     15
                      A                      A                      A
 Frequencies --    370.7013               380.0928               417.2805
 Red. masses --      4.6436                 4.7307                 2.8427
 Frc consts  --      0.3760                 0.4027                 0.2916
 IR Inten    --      0.6956                 0.7040                 0.0048

                     16                     17                     18
                      A                      A                      A
 Frequencies --    436.6945               462.8291               486.0375
 Red. masses --      4.1826                 4.9762                 3.1372
 Frc consts  --      0.4699                 0.6280                 0.4366
 IR Inten    --      0.3196                 6.0726                 0.1342

                     19                     20                     21
                      A                      A                      A
 Frequencies --    533.0904               538.5714               551.5239
 Red. masses --      3.6937                 3.8515                 6.6629
 Frc consts  --      0.6185                 0.6582                 1.1941
 IR Inten    --      7.1242                 4.0769                 2.1746

                     22                     23                     24
                      A                      A                      A
 Frequencies --    579.0192               607.6256               630.1206
 Red. masses --      5.3886                 4.0958                 6.3475
 Frc consts  --      1.0644                 0.8910                 1.4849
 IR Inten    --      2.8688                11.8591                 0.1129

                     25                     26                     27
                      A                      A                      A
 Frequencies --    655.9071               668.8365               721.6253
 Red. masses --      3.7549                 6.6663                 1.5738
 Frc consts  --      0.9518                 1.7570                 0.4829
 IR Inten    --      4.7708                 8.1104                39.3304

                     28                     29                     30
                      A                      A                      A
 Frequencies --    729.7029               772.6122               783.1289
 Red. masses --      3.2580                 2.4168                 1.4843
 Frc consts  --      1.0221                 0.8500                 0.5363
 IR Inten    --      5.2029                19.2144                 3.7160

                     31                     32                     33
                      A                      A                      A
 Frequencies --    794.7753               821.8061               826.0160
 Red. masses --      3.3220                 4.6442                 1.5630
 Frc consts  --      1.2363                 1.8480                 0.6283
 IR Inten    --      4.3971                 3.4377                60.7914

                     34                     35                     36
                      A                      A                      A
 Frequencies --    828.2590               845.7064               862.8487
 Red. masses --      4.4629                 5.8779                 1.2538
 Frc consts  --      1.8038                 2.4769                 0.5500
 IR Inten    --      5.7893                 5.8666                 0.2169

                     37                     38                     39
                      A                      A                      A
 Frequencies --    885.0162               937.0585               945.4420
 Red. masses --      4.7339                 1.8575                 3.7215
 Frc consts  --      2.1846                 0.9610                 1.9599
 IR Inten    --      1.7338                 1.4546                 6.4632

                     40                     41                     42
                      A                      A                      A
 Frequencies --    961.1024               977.9748               989.3362
 Red. masses --      1.3913                 1.4497                 4.3589
 Frc consts  --      0.7572                 0.8170                 2.5137
 IR Inten    --      0.1584                 0.0736                37.1885

                     43                     44                     45
                      A                      A                      A
 Frequencies --   1000.3126              1008.7794              1013.2352
 Red. masses --      1.3934                 2.4621                 1.3942
 Frc consts  --      0.8215                 1.4762                 0.8433
 IR Inten    --      0.5756                 7.0471                 0.1150

                     46                     47                     48
                      A                      A                      A
 Frequencies --   1017.4463              1022.1030              1023.8862
 Red. masses --      4.9395                 1.3868                 1.3827
 Frc consts  --      3.0127                 0.8536                 0.8541
 IR Inten    --      0.5956                 1.0765                 0.3913

                     49                     50                     51
                      A                      A                      A
 Frequencies --   1039.3123              1053.9550              1063.2083
 Red. masses --      3.4631                 2.4591                 2.2308
 Frc consts  --      2.2040                 1.6094                 1.4858
 IR Inten    --      7.3319                 1.6459                14.8781

                     52                     53                     54
                      A                      A                      A
 Frequencies --   1069.0322              1080.7592              1115.8825
 Red. masses --      3.8602                 2.2316                 1.4429
 Frc consts  --      2.5992                 1.5358                 1.0586
 IR Inten    --     48.8733                 7.8212                 7.1430

                     55                     56                     57
                      A                      A                      A
 Frequencies --   1120.3105              1149.0855              1170.1306
 Red. masses --      1.8361                 1.1995                 1.0885
 Frc consts  --      1.3577                 0.9332                 0.8781
 IR Inten    --     25.2993                 0.8399                 2.1445

                     58                     59                     60
                      A                      A                      A
 Frequencies --   1170.2780              1193.0475              1213.1402
 Red. masses --      1.2702                 1.1036                 1.3145
 Frc consts  --      1.0249                 0.9255                 1.1399
 IR Inten    --     16.9271                 0.8352                 0.7150

                     61                     62                     63
                      A                      A                      A
 Frequencies --   1234.8036              1237.0885              1247.3762
 Red. masses --      1.5084                 2.0834                 1.6533
 Frc consts  --      1.3551                 1.8786                 1.5156
 IR Inten    --      4.1727                46.1140                15.2803

                     64                     65                     66
                      A                      A                      A
 Frequencies --   1252.5957              1266.0338              1319.9920
 Red. masses --      1.7321                 1.6767                 1.6676
 Frc consts  --      1.6012                 1.5834                 1.7120
 IR Inten    --      1.4026                 4.1221                21.4227

                     67                     68                     69
                      A                      A                      A
 Frequencies --   1331.5104              1372.4044              1376.0160
 Red. masses --      1.5026                 1.9211                 4.8457
 Frc consts  --      1.5695                 2.1319                 5.4057
 IR Inten    --     12.1779                 7.0477                 4.3471

                     70                     71                     72
                      A                      A                      A
 Frequencies --   1395.0900              1405.8094              1436.8218
 Red. masses --      1.9389                 4.9691                 3.6327
 Frc consts  --      2.2233                 5.7860                 4.4186
 IR Inten    --     82.3224                 1.1417                 0.4635

                     73                     74                     75
                      A                      A                      A
 Frequencies --   1447.8016              1468.2079              1488.7884
 Red. masses --      2.4959                 3.2400                 1.4610
 Frc consts  --      3.0824                 4.1150                 1.9080
 IR Inten    --     21.5016                 4.1322                 9.2795

                     76                     77                     78
                      A                      A                      A
 Frequencies --   1497.7261              1527.0127              1538.6779
 Red. masses --      1.8852                 3.7212                 2.6088
 Frc consts  --      2.4916                 5.1123                 3.6390
 IR Inten    --     14.1663                12.0794                 9.1065

                     79                     80                     81
                      A                      A                      A
 Frequencies --   1583.3993              1651.3447              1671.8122
 Red. masses --      5.3132                 7.0828                 6.4240
 Frc consts  --      7.8486                11.3797                10.5786
 IR Inten    --     34.5171                33.6460                 0.5448

                     82                     83                     84
                      A                      A                      A
 Frequencies --   1679.2501              1691.9131              1693.4392
 Red. masses --      6.6041                 6.4458                 7.6240
 Frc consts  --     10.9721                10.8713                12.8818
 IR Inten    --     33.9656                 4.2663                21.8943

                     85                     86                     87
                      A                      A                      A
 Frequencies --   1737.2784              3092.0491              3109.5069
 Red. masses --     10.7339                 1.0672                 1.0855
 Frc consts  --     19.0874                 6.0114                 6.1838
 IR Inten    --    125.7088                28.0062                30.0509

                     88                     89                     90
                      A                      A                      A
 Frequencies --   3165.5088              3174.4207              3195.3412
 Red. masses --      1.0921                 1.1078                 1.0875
 Frc consts  --      6.4476                 6.5773                 6.5423
 IR Inten    --     17.2932                14.4249                 3.6736

                     91                     92                     93
                      A                      A                      A
 Frequencies --   3197.8533              3206.5118              3208.1177
 Red. masses --      1.0899                 1.0900                 1.0905
 Frc consts  --      6.5666                 6.6031                 6.6126
 IR Inten    --      1.0748                 0.0808                 5.8965

                     94                     95                     96
                      A                      A                      A
 Frequencies --   3208.6873              3219.7411              3229.4057
 Red. masses --      1.0912                 1.0961                 1.1005
 Frc consts  --      6.6194                 6.6946                 6.7623
 IR Inten    --      2.8884                14.3021                12.9618

                     97                     98                     99
                      A                      A                      A
 Frequencies --   3230.1623              3238.0819              3249.1329
 Red. masses --      1.0952                 1.0983                 1.0951
 Frc consts  --      6.7326                 6.7849                 6.8112
 IR Inten    --     10.1853                 9.7071                 0.8644

 - Thermochemistry -
 -------------------
 Temperature   298.150 Kelvin.  Pressure   1.00000 Atm.
 Atom     1 has atomic number  6 and mass  12.00000

 Molecular mass:   274.11061 amu.
 Principal axes and moments of inertia in atomic units:
                           1         2         3
     Eigenvalues --  3150.397999400.89743**********
           X            1.00000   0.00119  -0.00195
           Y           -0.00120   0.99998  -0.00570
           Z            0.00195   0.00570   0.99998
 This molecule is an asymmetric top.
 Rotational symmetry number  1.
 Warning -- assumption of classical behavior for rotation
           may cause significant error
 Rotational temperatures (Kelvin)      0.02749     0.00921     0.00778
 Rotational constants (GHZ):           0.57286     0.19198     0.16210
    1 imaginary frequencies ignored.
 Zero-point vibrational energy     738896.3 (Joules/Mol)
                                  176.60044 (Kcal/Mol)
 Warning -- explicit consideration of  22 degrees of freedom as
           vibrations may cause significant error
 Vibrational temperatures:     29.83    50.13    82.70   114.58   187.54
          (Kelvin)            233.96   264.18   340.49   349.42   412.32
                              427.45   533.36   546.87   600.37   628.31
                              665.91   699.30   767.00   774.88   793.52
                              833.08   874.24   906.60   943.70   962.31
                             1038.26  1049.88  1111.62  1126.75  1143.50
                             1182.40  1188.45  1191.68  1216.78  1241.45
                             1273.34  1348.22  1360.28  1382.81  1407.09
                             1423.43  1439.23  1451.41  1457.82  1463.88
                             1470.58  1473.14  1495.34  1516.41  1529.72
                             1538.10  1554.97  1605.51  1611.88  1653.28
                             1683.56  1683.77  1716.53  1745.44  1776.61
                             1779.89  1794.70  1802.21  1821.54  1899.17
                             1915.75  1974.58  1979.78  2007.22  2022.65
                             2067.27  2083.06  2112.42  2142.03  2154.89
                             2197.03  2213.81  2278.16  2375.92  2405.36
                             2416.07  2434.29  2436.48  2499.56  4448.77
                             4473.89  4554.46  4567.28  4597.38  4601.00
                             4613.46  4615.77  4616.59  4632.49  4646.39
                             4647.48  4658.88  4674.78

 Zero-point correction=                           0.281431 (Hartree/Particle)
 Thermal correction to Energy=                    0.296147
 Thermal correction to Enthalpy=                  0.297092
 Thermal correction to Gibbs Free Energy=         0.237603
 Sum of electronic and zero-point Energies=           -877.177160
 Sum of electronic and thermal Energies=              -877.162444
 Sum of electronic and thermal Enthalpies=            -877.161499
 Sum of electronic and thermal Free Energies=         -877.220988

                     E (Thermal)             CV                S
                      KCal/Mol        Cal/Mol-Kelvin    Cal/Mol-Kelvin
 Total                  185.835             60.296            125.204
 Electronic               0.000              0.000              0.000
 Translational            0.889              2.981             42.724
 Rotational               0.889              2.981             34.155
 Vibrational            184.058             54.334             48.326
 Vibration     1          0.593              1.986              6.563
 Vibration     2          0.594              1.983              5.533
 Vibration     3          0.596              1.975              4.542
 Vibration     4          0.600              1.963              3.900
 Vibration     5          0.612              1.923              2.941
 Vibration     6          0.623              1.888              2.519
 Vibration     7          0.631              1.862              2.291
 Vibration     8          0.656              1.785              1.828
 Vibration     9          0.659              1.775              1.782
 Vibration    10          0.684              1.699              1.494
 Vibration    11          0.691              1.679              1.433
 Vibration    12          0.743              1.532              1.077
 Vibration    13          0.750              1.513              1.039
 Vibration    14          0.780              1.433              0.901
 Vibration    15          0.797              1.390              0.837
 Vibration    16          0.820              1.333              0.758
 Vibration    17          0.842              1.281              0.694
 Vibration    18          0.888              1.177              0.580
 Vibration    19          0.894              1.165              0.568
 Vibration    20          0.907              1.136              0.541
 Vibration    21          0.936              1.077              0.487
 Vibration    22          0.966              1.016              0.437

 Normal termination of Gaussian 16 at Thu Nov  3 08:19:09 2022.
