 Gaussian 16, Revision A.03,
 Gaussian 16:  ES64L-G16RevA.03 25-Dec-2016

 ----------------------------------------------------------------------
 #p pop=(regular,nbo,savenbos) freq=noraman def2svp empiricaldispersion
 =gd3bj output=wfx pbe1pbe
 ----------------------------------------------------------------------

 --------
 21_lig_b
 --------
 Symbolic Z-matrix:
 Charge =  0 Multiplicity = 1

                         Standard orientation:
 ---------------------------------------------------------------------
 Center     Atomic      Atomic             Coordinates (Angstroms)
 Number     Number       Type             X           Y           Z
 ---------------------------------------------------------------------
      1          6           0        4.822243    0.221069    0.094715
      2          6           0        3.360479    0.621622    0.306062
      3          6           0        2.517843   -0.094172   -0.776828
      4          1           0        2.863963    0.249885   -1.764132
      5          6           0        2.480917   -1.628724   -0.691610
      6          8           0        1.128333   -1.934193   -0.314957
      7          6           0        0.427360   -0.802440   -0.410294
      8          7           0        1.099249    0.251363   -0.687453
      9          7           0       -1.477698    1.474260   -0.431548
     10          6           0       -1.902686    0.209053   -0.155140
     11          6           0       -1.012727   -0.914332   -0.169692
     12          6           0       -1.507303   -2.183692    0.093034
     13          6           0       -2.861923   -2.410635    0.387954
     14          6           0       -3.730363   -1.348626    0.433806
     15          6           0       -3.273976   -0.034113    0.172430
     16          6           0       -4.160006    1.067948    0.229220
     17          6           0       -3.687628    2.328710   -0.023524
     18          6           0       -2.329216    2.482269   -0.358274
     19          6           0        2.897293    0.231237    1.709601
     20          6           0        3.230059    2.136125    0.127767
     21          1           0        4.983630   -0.862649    0.212379
     22          1           0        5.465173    0.727636    0.830376
     23          1           0        5.168268    0.511216   -0.909674
     24          1           0        3.147272   -2.054455    0.069649
     25          1           0        2.679585   -2.116497   -1.657213
     26          1           0       -0.808336   -3.020044    0.073416
     27          1           0       -3.210469   -3.425808    0.585792
     28          1           0       -4.786483   -1.496710    0.672074
     29          1           0       -5.209737    0.892198    0.478373
     30          1           0       -4.332556    3.207589    0.016420
     31          1           0       -1.894790    3.466874   -0.576939
     32          1           0        3.002748   -0.847828    1.906697
     33          1           0        1.843935    0.509844    1.868446
     34          1           0        3.495195    0.760255    2.467324
     35          1           0        3.414778    2.441303   -0.913048
     36          1           0        3.949150    2.656103    0.779553
     37          1           0        2.228950    2.507471    0.397803
 ---------------------------------------------------------------------

 SCF Done:  E(RPBE1PBE) =  -803.798078060     A.U. after   15 cycles

 The electronic state is 1-A.
 Alpha  occ. eigenvalues --  -19.23931 -14.38163 -14.35229 -10.31174 -10.28362
 Alpha  occ. eigenvalues --  -10.28135 -10.27340 -10.26066 -10.25616 -10.25582
 Alpha  occ. eigenvalues --  -10.25541 -10.25314 -10.24987 -10.24886 -10.24882
 Alpha  occ. eigenvalues --  -10.24094 -10.22231 -10.21555 -10.20995  -1.11382
 Alpha  occ. eigenvalues --   -0.96408  -0.90878  -0.87951  -0.84198  -0.82683
 Alpha  occ. eigenvalues --   -0.78887  -0.77474  -0.74498  -0.69484  -0.68880
 Alpha  occ. eigenvalues --   -0.66640  -0.66100  -0.64232  -0.63683  -0.57550
 Alpha  occ. eigenvalues --   -0.55451  -0.54640  -0.53176  -0.52663  -0.51066
 Alpha  occ. eigenvalues --   -0.50040  -0.47872  -0.46447  -0.45157  -0.44840
 Alpha  occ. eigenvalues --   -0.44561  -0.44395  -0.43332  -0.42707  -0.41833
 Alpha  occ. eigenvalues --   -0.41033  -0.39255  -0.39129  -0.38720  -0.37641
 Alpha  occ. eigenvalues --   -0.37055  -0.36413  -0.36202  -0.35888  -0.33984
 Alpha  occ. eigenvalues --   -0.33267  -0.32609  -0.32257  -0.27723  -0.27226
 Alpha  occ. eigenvalues --   -0.26198  -0.23955  -0.23560
 Alpha virt. eigenvalues --   -0.06702  -0.02112  -0.00493   0.06083   0.06904
 Alpha virt. eigenvalues --    0.07067   0.08987   0.09468   0.10005   0.10751
 Alpha virt. eigenvalues --    0.11128   0.11783   0.12523   0.13687   0.13797

 Mulliken charges:
               1
     1  C    0.022747
     2  C   -0.379991
     3  C   -0.020371
     4  H    0.033410
     5  C    0.251669
     6  O   -0.356765
     7  C    0.154361
     8  N   -0.194062
     9  N   -0.121365
    10  C    0.044897
    11  C   -0.032503
    12  C   -0.014044
    13  C    0.001334
    14  C   -0.009246
    15  C   -0.031444
    16  C    0.035220
    17  C   -0.049405
    18  C    0.050283
    19  C    0.004101
    20  C    0.035227
    21  H    0.025198
    22  H    0.037395
    23  H    0.033575
    24  H    0.043262
    25  H    0.044380
    26  H    0.035922
    27  H    0.025421
    28  H    0.010675
    29  H    0.020044
    30  H    0.028624
    31  H    0.041862
    32  H    0.027564
    33  H    0.058954
    34  H    0.033906
    35  H    0.027935
    36  H    0.025011
    37  H    0.056218
 Sum of Mulliken charges =  -0.00000

 Dipole moment (field-independent basis, Debye):
    X=             -1.2966    Y=             -0.9427    Z=              0.5908  Tot=              1.7084
 Quadrupole moment (field-independent basis, Debye-Ang):
   XX=            -91.6012   YY=           -105.2400   ZZ=           -114.6888
   XY=             -3.5342   XZ=             -3.5096   YZ=              0.7054

  Exact polarizability: 246.075  -1.558 215.205 -15.748  -8.749 112.611
 Approx polarizability: 329.431   5.561 362.405 -32.365 -25.049 173.313

 Summary of Natural Population Analysis:

                                       Natural Population
                Natural  -----------------------------------------------
    Atom  No    Charge         Core      Valence    Rydberg      Total
 -----------------------------------------------------------------------
      C    1   -0.65019      1.99918     4.63758    0.01344     6.65019
      C    2   -0.08200      1.99886     4.06672    0.01642     6.08200
      C    3   -0.08999      1.99894     4.06377    0.02728     6.08999
      H    4    0.24335      0.00000     0.75314    0.00351     0.75665
      C    5   -0.08096      1.99904     4.06264    0.01928     6.08096
      O    6   -0.57613      1.99966     6.56618    0.01029     8.57613
      C    7    0.59183      1.99900     3.36646    0.04270     5.40817
      N    8   -0.51922      1.99931     5.50372    0.01619     7.51922
      N    9   -0.45176      1.99926     5.43569    0.01681     7.45176
      C   10    0.21825      1.99884     3.75820    0.02471     5.78175
      C   11   -0.10855      1.99882     4.09148    0.01825     6.10855
      C   12   -0.18254      1.99897     4.16793    0.01564     6.18254
      C   13   -0.22595      1.99893     4.21160    0.01542     6.22595
      C   14   -0.18615      1.99893     4.17132    0.01589     6.18615
      C   15   -0.09880      1.99887     4.08444    0.01550     6.09880
      C   16   -0.16780      1.99892     4.15262    0.01627     6.16780
      C   17   -0.27325      1.99894     4.26003    0.01428     6.27325
      C   18    0.07417      1.99906     3.90217    0.02460     5.92583
      C   19   -0.66023      1.99918     4.64708    0.01398     6.66023
      C   20   -0.64887      1.99919     4.63515    0.01454     6.64887
      H   21    0.21847      0.00000     0.77901    0.00251     0.78153
      H   22    0.23001      0.00000     0.76744    0.00255     0.76999
      H   23    0.22471      0.00000     0.77265    0.00264     0.77529
      H   24    0.20957      0.00000     0.78745    0.00298     0.79043
      H   25    0.21158      0.00000     0.78533    0.00309     0.78842
      H   26    0.25387      0.00000     0.74269    0.00344     0.74613
      H   27    0.23614      0.00000     0.76119    0.00267     0.76386
      H   28    0.23002      0.00000     0.76690    0.00308     0.76998
      H   29    0.23362      0.00000     0.76346    0.00292     0.76638
      H   30    0.23621      0.00000     0.76083    0.00297     0.76379
      H   31    0.21440      0.00000     0.78274    0.00285     0.78560
      H   32    0.21977      0.00000     0.77784    0.00239     0.78023
      H   33    0.23939      0.00000     0.75766    0.00295     0.76061
      H   34    0.22859      0.00000     0.76892    0.00248     0.77141
      H   35    0.22381      0.00000     0.77372    0.00248     0.77619
      H   36    0.21921      0.00000     0.77823    0.00255     0.78079
      H   37    0.24539      0.00000     0.75173    0.00288     0.75461
 =======================================================================
   * Total *    0.00000     37.98189    97.61571    0.40240   136.00000

 ******    1 imaginary frequencies (negative Signs) ******

                      1                      2                      3
                      A                      A                      A
 Frequencies --    -69.5495                27.5060                60.0703
 Red. masses --      6.2869                 4.0402                 3.2750
 Frc consts  --      0.0179                 0.0018                 0.0070
 IR Inten    --      0.2447                 0.7566                 1.0105

                      4                      5                      6
                      A                      A                      A
 Frequencies --     72.8326                97.8934               150.4192
 Red. masses --      3.3051                 5.2701                 3.4442
 Frc consts  --      0.0103                 0.0298                 0.0459
 IR Inten    --      0.7612                 1.1999                 0.8865

                      7                      8                      9
                      A                      A                      A
 Frequencies --    180.7619               197.5278               207.2637
 Red. masses --      3.9976                 1.2505                 2.5338
 Frc consts  --      0.0770                 0.0287                 0.0641
 IR Inten    --      2.9233                 0.9022                 2.7256

                     10                     11                     12
                      A                      A                      A
 Frequencies --    242.7766               252.3430               265.9500
 Red. masses --      1.3559                 1.8679                 1.3137
 Frc consts  --      0.0471                 0.0701                 0.0547
 IR Inten    --      0.0147                 0.2851                 0.1728

                     13                     14                     15
                      A                      A                      A
 Frequencies --    285.1262               298.6818               303.3521
 Red. masses --      2.1139                 3.2509                 4.0785
 Frc consts  --      0.1013                 0.1709                 0.2211
 IR Inten    --      0.6323                 0.3489                 0.2915

                     16                     17                     18
                      A                      A                      A
 Frequencies --    351.7900               379.9176               397.3514
 Red. masses --      2.6909                 2.8642                 2.4872
 Frc consts  --      0.1962                 0.2436                 0.2314
 IR Inten    --      0.3655                 0.2853                 0.0653

                     19                     20                     21
                      A                      A                      A
 Frequencies --    432.1691               456.6271               479.2927
 Red. masses --      3.8883                 4.1401                 2.8888
 Frc consts  --      0.4279                 0.5086                 0.3910
 IR Inten    --      0.8742                 4.8845                 0.8295

                     22                     23                     24
                      A                      A                      A
 Frequencies --    485.5979               513.0230               548.4772
 Red. masses --      3.2050                 3.4336                 5.9807
 Frc consts  --      0.4453                 0.5324                 1.0600
 IR Inten    --      0.1446                 1.3544                 2.2835

                     25                     26                     27
                      A                      A                      A
 Frequencies --    564.1593               588.7384               650.5430
 Red. masses --      4.4039                 5.6342                 3.6747
 Frc consts  --      0.8258                 1.1506                 0.9163
 IR Inten    --      5.0563                 4.8395                 1.8175

                     28                     29                     30
                      A                      A                      A
 Frequencies --    670.8370               715.9291               757.0599
 Red. masses --      6.8700                 3.0480                 2.7251
 Frc consts  --      1.8215                 0.9205                 0.9202
 IR Inten    --     13.1270                 0.9495                 4.3608

                     31                     32                     33
                      A                      A                      A
 Frequencies --    783.8651               809.8013               826.0449
 Red. masses --      1.5350                 5.5874                 1.5287
 Frc consts  --      0.5557                 2.1588                 0.6146
 IR Inten    --      1.4602                 2.5812                62.2627

                     34                     35                     36
                      A                      A                      A
 Frequencies --    827.2036               844.1820               875.1637
 Red. masses --      4.5753                 5.8955                 2.1321
 Frc consts  --      1.8446                 2.4754                 0.9621
 IR Inten    --      4.3339                 4.1244                 4.4554

                     37                     38                     39
                      A                      A                      A
 Frequencies --    884.4482               942.0070               943.3321
 Red. masses --      4.6767                 4.1193                 1.3865
 Frc consts  --      2.1554                 2.1537                 0.7269
 IR Inten    --      1.7583                 5.0189                 1.4333

                     40                     41                     42
                      A                      A                      A
 Frequencies --    948.7796               953.6686               961.7893
 Red. masses --      1.6272                 1.4382                 1.3896
 Frc consts  --      0.8630                 0.7707                 0.7574
 IR Inten    --      4.5885                 0.7659                 0.1293

                     43                     44                     45
                      A                      A                      A
 Frequencies --    978.7115               988.7017              1003.5988
 Red. masses --      1.4458                 1.6069                 3.7039
 Frc consts  --      0.8159                 0.9255                 2.1980
 IR Inten    --      0.0527                 1.6375                26.5750

                     46                     47                     48
                      A                      A                      A
 Frequencies --   1013.4639              1019.4605              1022.5487
 Red. masses --      1.3827                 2.0430                 1.3875
 Frc consts  --      0.8367                 1.2510                 0.8547
 IR Inten    --      0.0483                 9.8674                 1.0556

                     49                     50                     51
                      A                      A                      A
 Frequencies --   1055.4370              1066.6996              1076.6452
 Red. masses --      1.7390                 2.5629                 2.9926
 Frc consts  --      1.1414                 1.7182                 2.0439
 IR Inten    --      8.0770                32.4959                12.2488

                     52                     53                     54
                      A                      A                      A
 Frequencies --   1081.4521              1086.2679              1121.9120
 Red. masses --      2.6689                 2.3876                 1.8558
 Frc consts  --      1.8390                 1.6599                 1.3762
 IR Inten    --      5.5071                23.6866                28.3514

                     55                     56                     57
                      A                      A                      A
 Frequencies --   1149.3769              1172.1221              1212.6475
 Red. masses --      1.1946                 1.2976                 1.3701
 Frc consts  --      0.9298                 1.0504                 1.1871
 IR Inten    --      0.7835                21.7641                 3.2034

                     58                     59                     60
                      A                      A                      A
 Frequencies --   1230.3890              1238.0147              1249.0030
 Red. masses --      1.5488                 2.0212                 1.9616
 Frc consts  --      1.3814                 1.8252                 1.8030
 IR Inten    --     19.8233                41.5731                 2.9334

                     61                     62                     63
                      A                      A                      A
 Frequencies --   1250.7251              1266.5931              1277.7607
 Red. masses --      2.1976                 1.6853                 1.9663
 Frc consts  --      2.0255                 1.5929                 1.8914
 IR Inten    --      9.1555                 3.3119                 3.5282

                     64                     65                     66
                      A                      A                      A
 Frequencies --   1285.7543              1325.4415              1357.5364
 Red. masses --      2.3501                 1.5117                 1.6910
 Frc consts  --      2.2891                 1.5647                 1.8361
 IR Inten    --      7.3564                12.7542                15.4385

                     67                     68                     69
                      A                      A                      A
 Frequencies --   1376.4913              1379.5599              1386.8151
 Red. masses --      4.0004                 1.4400                 1.4456
 Frc consts  --      4.4658                 1.6147                 1.6381
 IR Inten    --      1.2767                24.4395                10.4330

                     70                     71                     72
                      A                      A                      A
 Frequencies --   1397.8847              1407.5137              1437.0537
 Red. masses --      1.8760                 1.2719                 3.5899
 Frc consts  --      2.1598                 1.4846                 4.3680
 IR Inten    --     78.5668                10.3207                 0.5381

                     73                     74                     75
                      A                      A                      A
 Frequencies --   1442.8743              1448.4836              1454.4591
 Red. masses --      1.1056                 1.9946                 1.0607
 Frc consts  --      1.3562                 2.4657                 1.3220
 IR Inten    --      0.7363                23.4255                 0.0473

                     76                     77                     78
                      A                      A                      A
 Frequencies --   1459.1615              1467.7110              1473.3542
 Red. masses --      1.0489                 2.3148                 1.2485
 Frc consts  --      1.3158                 2.9379                 1.5969
 IR Inten    --      0.5477                 3.0026                 1.3655

                     79                     80                     81
                      A                      A                      A
 Frequencies --   1478.3230              1490.3637              1495.7942
 Red. masses --      1.1315                 1.1251                 1.1441
 Frc consts  --      1.4569                 1.4724                 1.5082
 IR Inten    --      8.0167                17.0586                14.2320

                     82                     83                     84
                      A                      A                      A
 Frequencies --   1527.8040              1584.4938              1651.0841
 Red. masses --      3.7678                 5.3387                 7.0421
 Frc consts  --      5.1817                 7.8971                11.3107
 IR Inten    --      9.3438                33.4889                31.9072

                     85                     86                     87
                      A                      A                      A
 Frequencies --   1679.6231              1693.2417              1733.4853
 Red. masses --      6.6355                 7.6914                10.5571
 Frc consts  --     11.0293                12.9926                18.6910
 IR Inten    --     34.1443                24.6873               115.5443

                     88                     89                     90
                      A                      A                      A
 Frequencies --   3047.1844              3050.6159              3056.2185
 Red. masses --      1.0366                 1.0372                 1.0384
 Frc consts  --      5.6712                 5.6872                 5.7147
 IR Inten    --     22.2434                22.0521                18.4335

                     91                     92                     93
                      A                      A                      A
 Frequencies --   3081.7328              3095.8917              3138.9107
 Red. masses --      1.0830                 1.0663                 1.1031
 Frc consts  --      6.0601                 6.0213                 6.4038
 IR Inten    --     16.9941                50.7879                 4.9139

                     94                     95                     96
                      A                      A                      A
 Frequencies --   3140.7519              3144.6235              3148.0676
 Red. masses --      1.1027                 1.1030                 1.1034
 Frc consts  --      6.4086                 6.4262                 6.4430
 IR Inten    --     34.8449                10.3552                15.1656

                     97                     98                     99
                      A                      A                      A
 Frequencies --   3151.4860              3154.2377              3161.5332
 Red. masses --      1.1033                 1.1036                 1.0922
 Frc consts  --      6.4560                 6.4694                 6.4318
 IR Inten    --     21.3051                23.9256                18.3391

                    100                    101                    102
                      A                      A                      A
 Frequencies --   3164.1481              3206.5448              3208.1412
 Red. masses --      1.1093                 1.0900                 1.0905
 Frc consts  --      6.5437                 6.6034                 6.6125
 IR Inten    --     22.3472                 0.0751                 5.8029

                    103                    104                    105
                      A                      A                      A
 Frequencies --   3230.3725              3237.9596              3250.9833
 Red. masses --      1.0955                 1.0983                 1.0947
 Frc consts  --      6.7352                 6.7842                 6.8169
 IR Inten    --     10.8869                 9.6975                 0.7469

 - Thermochemistry -
 -------------------
 Temperature   298.150 Kelvin.  Pressure   1.00000 Atm.
 Atom     1 has atomic number  6 and mass  12.00000

 Molecular mass:   254.14191 amu.
 Principal axes and moments of inertia in atomic units:
                           1         2         3
     Eigenvalues --  2409.198217548.513809291.00091
           X            0.99996   0.00841   0.00208
           Y           -0.00841   0.99996   0.00057
           Z           -0.00207  -0.00058   1.00000
 This molecule is an asymmetric top.
 Rotational symmetry number  1.
 Warning -- assumption of classical behavior for rotation
           may cause significant error
 Rotational temperatures (Kelvin)      0.03595     0.01147     0.00932
 Rotational constants (GHZ):           0.74910     0.23909     0.19425
    1 imaginary frequencies ignored.
 Zero-point vibrational energy     818841.1 (Joules/Mol)
                                  195.70772 (Kcal/Mol)
 Warning -- explicit consideration of  25 degrees of freedom as
           vibrations may cause significant error
 Vibrational temperatures:     39.57    86.43   104.79   140.85   216.42
          (Kelvin)            260.08   284.20   298.21   349.30   363.07
                              382.64   410.23   429.74   436.46   506.15
                              546.62   571.70   621.79   656.98   689.60
                              698.67   738.13   789.14   811.70   847.06
                              935.99   965.18  1030.06  1089.24  1127.81
                             1165.12  1188.49  1190.16  1214.59  1259.17
                             1272.52  1355.34  1357.24  1365.08  1372.12
                             1383.80  1408.15  1422.52  1443.95  1458.15
                             1466.78  1471.22  1518.54  1534.74  1549.05
                             1555.97  1562.90  1614.18  1653.70  1686.42
                             1744.73  1770.26  1781.23  1797.04  1799.51
                             1822.34  1838.41  1849.91  1907.01  1953.19
                             1980.46  1984.88  1995.32  2011.24  2025.10
                             2067.60  2075.97  2084.04  2092.64  2099.41
                             2111.71  2119.83  2126.98  2144.30  2152.11
                             2198.17  2279.73  2375.54  2416.60  2436.20
                             2494.10  4384.22  4389.16  4397.22  4433.93
                             4454.30  4516.19  4518.84  4524.41  4529.37
                             4534.29  4538.24  4548.74  4552.50  4613.50
                             4615.80  4647.79  4658.70  4677.44

 Zero-point correction=                           0.311880 (Hartree/Particle)
 Thermal correction to Energy=                    0.327595
 Thermal correction to Enthalpy=                  0.328539
 Thermal correction to Gibbs Free Energy=         0.268785
 Sum of electronic and zero-point Energies=           -803.486198
 Sum of electronic and thermal Energies=              -803.470483
 Sum of electronic and thermal Enthalpies=            -803.469539
 Sum of electronic and thermal Free Energies=         -803.529293

                     E (Thermal)             CV                S
                      KCal/Mol        Cal/Mol-Kelvin    Cal/Mol-Kelvin
 Total                  205.569             63.491            125.764
 Electronic               0.000              0.000              0.000
 Translational            0.889              2.981             42.498
 Rotational               0.889              2.981             33.490
 Vibrational            203.792             57.529             49.776
 Vibration     1          0.593              1.984              6.002
 Vibration     2          0.597              1.973              4.455
 Vibration     3          0.599              1.967              4.075
 Vibration     4          0.603              1.951              3.496
 Vibration     5          0.618              1.902              2.667
 Vibration     6          0.630              1.866              2.321
 Vibration     7          0.637              1.843              2.156
 Vibration     8          0.641              1.830              2.068
 Vibration     9          0.659              1.775              1.782
 Vibration    10          0.664              1.759              1.714
 Vibration    11          0.672              1.736              1.622
 Vibration    12          0.683              1.701              1.503
 Vibration    13          0.692              1.676              1.424
 Vibration    14          0.695              1.667              1.398
 Vibration    15          0.728              1.572              1.158
 Vibration    16          0.750              1.513              1.039
 Vibration    17          0.764              1.476              0.972
 Vibration    18          0.793              1.400              0.852
 Vibration    19          0.815              1.346              0.776
 Vibration    20          0.836              1.296              0.712
 Vibration    21          0.842              1.282              0.695
 Vibration    22          0.868              1.221              0.626
 Vibration    23          0.904              1.143              0.547
 Vibration    24          0.920              1.109              0.516
 Vibration    25          0.946              1.056              0.469

 Normal termination of Gaussian 16 at Thu Nov  3 08:20:20 2022.
