 Gaussian 16, Revision A.03,
 Gaussian 16:  ES64L-G16RevA.03 25-Dec-2016

 ----------------------------------------------------------------------
 #p pop=(regular,nbo,savenbos) freq=noraman def2svp empiricaldispersion
 =gd3bj output=wfx pbe1pbe
 ----------------------------------------------------------------------

 --------
 22_lig_b
 --------
 Symbolic Z-matrix:
 Charge =  0 Multiplicity = 1

                         Standard orientation:
 ---------------------------------------------------------------------
 Center     Atomic      Atomic             Coordinates (Angstroms)
 Number     Number       Type             X           Y           Z
 ---------------------------------------------------------------------
      1          6           0       -2.110402   -1.598353    1.939952
      2          6           0       -1.882877   -1.035761    0.541619
      3          6           0       -1.607436   -2.169659   -0.469951
      4          8           0       -0.175299   -2.252914   -0.517839
      5          6           0        0.290822   -1.104082   -0.016448
      6          7           0       -0.574861   -0.341987    0.540478
      7          7           0        1.637753    1.485065    0.435618
      8          6           0        2.359032    0.381769    0.100156
      9          6           0        1.733287   -0.883754   -0.142134
     10          6           0        2.506914   -1.969509   -0.523963
     11          6           0        3.902704   -1.876409   -0.659088
     12          6           0        4.528075   -0.676351   -0.425817
     13          6           0        3.778116    0.465790   -0.054981
     14          6           0        4.404316    1.716470    0.162400
     15          6           0        3.642794    2.807010    0.492413
     16          6           0        2.249495    2.642772    0.611329
     17          6           0       -2.957468   -0.072368    0.065652
     18          6           0       -2.715219    0.694432   -1.080849
     19          6           0       -3.644329    1.629185   -1.524680
     20          6           0       -4.843870    1.797219   -0.836853
     21          6           0       -5.096453    1.035747    0.301121
     22          6           0       -4.155648    0.114341    0.755686
     23          1           0       -1.289055   -2.283924    2.198147
     24          1           0       -3.052495   -2.164221    1.980489
     25          1           0       -2.128518   -0.773554    2.666844
     26          1           0       -1.970492   -1.935198   -1.482325
     27          1           0       -2.003432   -3.141444   -0.149943
     28          1           0        2.004230   -2.917721   -0.716827
     29          1           0        4.477820   -2.756968   -0.950842
     30          1           0        5.611749   -0.579559   -0.527848
     31          1           0        5.489307    1.792721    0.053634
     32          1           0        4.083632    3.790757    0.659162
     33          1           0        1.587104    3.489322    0.827146
     34          1           0       -1.767391    0.595305   -1.617109
     35          1           0       -3.418353    2.243011   -2.398796
     36          1           0       -5.573147    2.535938   -1.176831
     37          1           0       -6.025278    1.175565    0.858707
     38          1           0       -4.354660   -0.439203    1.673046
 ---------------------------------------------------------------------

 SCF Done:  E(RPBE1PBE) =  -916.704006155     A.U. after   15 cycles

 The electronic state is 1-A.
 Alpha  occ. eigenvalues --  -19.24280 -14.38215 -14.35648 -10.31474 -10.28659
 Alpha  occ. eigenvalues --  -10.28209 -10.27381 -10.27254 -10.26141 -10.25748
 Alpha  occ. eigenvalues --  -10.25719 -10.25433 -10.25186 -10.25026 -10.24959
 Alpha  occ. eigenvalues --  -10.23875 -10.23286 -10.23212 -10.23194 -10.23166
 Alpha  occ. eigenvalues --  -10.22985 -10.22657  -1.11715  -0.96563  -0.91629
 Alpha  occ. eigenvalues --   -0.88135  -0.86930  -0.83868  -0.81117  -0.77661
 Alpha  occ. eigenvalues --   -0.77292  -0.75658  -0.74357  -0.71358  -0.66815
 Alpha  occ. eigenvalues --   -0.65502  -0.64390  -0.63547  -0.61078  -0.58141
 Alpha  occ. eigenvalues --   -0.57955  -0.54848  -0.54159  -0.52932  -0.52766
 Alpha  occ. eigenvalues --   -0.50389  -0.49598  -0.47930  -0.46943  -0.46103
 Alpha  occ. eigenvalues --   -0.45311  -0.44733  -0.44453  -0.43908  -0.43001
 Alpha  occ. eigenvalues --   -0.42468  -0.41923  -0.41317  -0.40267  -0.39935
 Alpha  occ. eigenvalues --   -0.38799  -0.37820  -0.37494  -0.37181  -0.36129
 Alpha  occ. eigenvalues --   -0.35878  -0.34669  -0.33846  -0.32361  -0.28045
 Alpha  occ. eigenvalues --   -0.27348  -0.26697  -0.26084  -0.25700  -0.24257
 Alpha  occ. eigenvalues --   -0.23802
 Alpha virt. eigenvalues --   -0.06785  -0.02216  -0.00780  -0.00162   0.00537
 Alpha virt. eigenvalues --    0.06245   0.07008   0.07536   0.08911   0.09247
 Alpha virt. eigenvalues --    0.10059   0.10640   0.11592   0.12548   0.12750

 Mulliken charges:
               1
     1  C    0.064389
     2  C   -0.354114
     3  C    0.332464
     4  O   -0.354020
     5  C    0.168834
     6  N   -0.166747
     7  N   -0.121073
     8  C    0.046139
     9  C   -0.033447
    10  C   -0.014454
    11  C   -0.000111
    12  C   -0.008782
    13  C   -0.033083
    14  C    0.036551
    15  C   -0.050598
    16  C    0.053071
    17  C    0.091921
    18  C   -0.031879
    19  C   -0.023166
    20  C   -0.011128
    21  C   -0.018708
    22  C   -0.043462
    23  H    0.042108
    24  H    0.043437
    25  H    0.061379
    26  H    0.042359
    27  H    0.038527
    28  H    0.034912
    29  H    0.026102
    30  H    0.011181
    31  H    0.020063
    32  H    0.029235
    33  H    0.043295
    34  H    0.022159
    35  H    0.017618
    36  H    0.018145
    37  H    0.015446
    38  H    0.005434
 Sum of Mulliken charges =  -0.00000

 Dipole moment (field-independent basis, Debye):
    X=              1.8279    Y=             -0.5694    Z=             -0.5171  Tot=              1.9831
 Quadrupole moment (field-independent basis, Debye-Ang):
   XX=           -104.2657   YY=           -115.8371   ZZ=           -127.3555
   XY=              3.8295   XZ=             -2.9520   YZ=             -1.3866

  Exact polarizability: 289.035 -13.855 231.497 -19.070   4.942 140.256
 Approx polarizability: 397.855 -33.240 383.157 -43.448  18.838 229.136

 Summary of Natural Population Analysis:

                                       Natural Population
                Natural  -----------------------------------------------
    Atom  No    Charge         Core      Valence    Rydberg      Total
 -----------------------------------------------------------------------
      C    1   -0.66044      1.99919     4.64822    0.01303     6.66044
      C    2    0.08411      1.99884     3.89173    0.02532     5.91589
      C    3   -0.06314      1.99897     4.04278    0.02138     6.06314
      O    4   -0.57693      1.99966     6.56690    0.01037     8.57693
      C    5    0.59306      1.99900     3.36423    0.04371     5.40694
      N    6   -0.51582      1.99932     5.49912    0.01738     7.51582
      N    7   -0.45190      1.99925     5.43583    0.01681     7.45190
      C    8    0.21786      1.99884     3.75856    0.02474     5.78214
      C    9   -0.10758      1.99882     4.09047    0.01829     6.10758
      C   10   -0.18316      1.99896     4.16864    0.01556     6.18316
      C   11   -0.22590      1.99894     4.21155    0.01541     6.22590
      C   12   -0.18621      1.99893     4.17141    0.01587     6.18621
      C   13   -0.09846      1.99887     4.08408    0.01551     6.09846
      C   14   -0.16844      1.99892     4.15326    0.01625     6.16844
      C   15   -0.27223      1.99894     4.25904    0.01425     6.27223
      C   16    0.07587      1.99906     3.90065    0.02442     5.92413
      C   17   -0.04817      1.99884     4.02774    0.02159     6.04817
      C   18   -0.21107      1.99890     4.19603    0.01614     6.21107
      C   19   -0.22028      1.99894     4.20589    0.01545     6.22028
      C   20   -0.23152      1.99894     4.21747    0.01510     6.23152
      C   21   -0.22084      1.99895     4.20646    0.01544     6.22084
      C   22   -0.22622      1.99889     4.21260    0.01474     6.22622
      H   23    0.23652      0.00000     0.76108    0.00240     0.76348
      H   24    0.22414      0.00000     0.77325    0.00261     0.77586
      H   25    0.24536      0.00000     0.75157    0.00307     0.75464
      H   26    0.21307      0.00000     0.78395    0.00298     0.78693
      H   27    0.21646      0.00000     0.78067    0.00287     0.78354
      H   28    0.25279      0.00000     0.74383    0.00338     0.74721
      H   29    0.23644      0.00000     0.76088    0.00267     0.76356
      H   30    0.23045      0.00000     0.76648    0.00307     0.76955
      H   31    0.23373      0.00000     0.76336    0.00291     0.76627
      H   32    0.23638      0.00000     0.76066    0.00296     0.76362
      H   33    0.21499      0.00000     0.78214    0.00286     0.78501
      H   34    0.23853      0.00000     0.75812    0.00334     0.76147
      H   35    0.22993      0.00000     0.76732    0.00275     0.77007
      H   36    0.22886      0.00000     0.76841    0.00273     0.77114
      H   37    0.22878      0.00000     0.76845    0.00277     0.77122
      H   38    0.23097      0.00000     0.76616    0.00288     0.76903
 =======================================================================
   * Total *   -0.00000     43.97798   107.56900    0.45302   152.00000

 ******    1 imaginary frequencies (negative Signs) ******

                      1                      2                      3
                      A                      A                      A
 Frequencies --    -43.1461                13.5243                23.1569
 Red. masses --      5.6493                 3.9995                 4.7461
 Frc consts  --      0.0062                 0.0004                 0.0015
 IR Inten    --      0.2740                 0.2103                 0.7644

                      4                      5                      6
                      A                      A                      A
 Frequencies --     65.0344                72.9891               127.1913
 Red. masses --      5.4512                 4.8803                 5.1353
 Frc consts  --      0.0136                 0.0153                 0.0489
 IR Inten    --      1.5503                 1.0400                 0.8287

                      7                      8                      9
                      A                      A                      A
 Frequencies --    149.5371               181.2827               203.5194
 Red. masses --      3.9092                 4.0716                 3.4667
 Frc consts  --      0.0515                 0.0788                 0.0846
 IR Inten    --      0.5568                 3.2978                 0.6300

                     10                     11                     12
                      A                      A                      A
 Frequencies --    240.1052               264.5265               276.1253
 Red. masses --      4.0192                 4.7957                 4.3503
 Frc consts  --      0.1365                 0.1977                 0.1954
 IR Inten    --      0.4619                 0.2957                 0.0684

                     13                     14                     15
                      A                      A                      A
 Frequencies --    318.3583               327.8804               353.7627
 Red. masses --      2.4842                 1.3822                 2.6395
 Frc consts  --      0.1483                 0.0875                 0.1946
 IR Inten    --      1.5423                 0.0015                 0.2573

                     16                     17                     18
                      A                      A                      A
 Frequencies --    380.6397               414.3801               424.0044
 Red. masses --      3.5882                 2.8375                 4.5395
 Frc consts  --      0.3063                 0.2871                 0.4808
 IR Inten    --      0.3771                 0.4515                 0.2583

                     19                     20                     21
                      A                      A                      A
 Frequencies --    435.1317               469.3525               484.6865
 Red. masses --      3.8500                 4.8028                 3.1571
 Frc consts  --      0.4295                 0.6234                 0.4370
 IR Inten    --      1.1314                 4.6510                 0.3310

                     22                     23                     24
                      A                      A                      A
 Frequencies --    512.2219               546.6047               552.3321
 Red. masses --      3.6702                 4.2521                 6.1643
 Frc consts  --      0.5674                 0.7485                 1.1080
 IR Inten    --      0.5042                 4.6323                 3.1124

                     25                     26                     27
                      A                      A                      A
 Frequencies --    577.6151               594.1514               631.5583
 Red. masses --      4.0134                 4.4771                 6.3065
 Frc consts  --      0.7889                 0.9312                 1.4821
 IR Inten    --     10.5400                 9.5539                 0.0753

                     28                     29                     30
                      A                      A                      A
 Frequencies --    657.3394               665.0179               682.4517
 Red. masses --      3.5648                 6.5363                 5.7774
 Frc consts  --      0.9075                 1.7031                 1.5854
 IR Inten    --      3.2200                 7.4552                10.4649

                     31                     32                     33
                      A                      A                      A
 Frequencies --    719.2280               738.0778               783.6618
 Red. masses --      1.5010                 3.2745                 1.5235
 Frc consts  --      0.4575                 1.0510                 0.5512
 IR Inten    --     41.2610                 4.1005                 2.8429

                     34                     35                     36
                      A                      A                      A
 Frequencies --    786.9531               823.4773               825.1593
 Red. masses --      2.2384                 4.8672                 1.4661
 Frc consts  --      0.8167                 1.9446                 0.5881
 IR Inten    --     13.3865                 2.2749                64.7052

                     37                     38                     39
                      A                      A                      A
 Frequencies --    829.0757               843.2120               859.5908
 Red. masses --      4.9021                 4.8680                 1.2556
 Frc consts  --      1.9853                 2.0393                 0.5466
 IR Inten    --      1.3294                 4.9467                 0.3570

                     40                     41                     42
                      A                      A                      A
 Frequencies --    883.2137               905.4570               915.0191
 Red. masses --      4.6012                 2.3493                 2.6919
 Frc consts  --      2.1147                 1.1348                 1.3279
 IR Inten    --      2.2709                 3.8486                 1.9118

                     43                     44                     45
                      A                      A                      A
 Frequencies --    941.1213               960.3770               964.5712
 Red. masses --      1.6855                 1.4006                 1.7447
 Frc consts  --      0.8796                 0.7611                 0.9564
 IR Inten    --      5.0797                 0.2181                 3.3699

                     46                     47                     48
                      A                      A                      A
 Frequencies --    972.0288               975.6264               999.9311
 Red. masses --      2.8758                 1.4615                 1.3826
 Frc consts  --      1.6009                 0.8196                 0.8145
 IR Inten    --      8.2541                 0.1102                 0.1410

                     49                     50                     51
                      A                      A                      A
 Frequencies --   1012.5191              1017.2931              1019.4244
 Red. masses --      1.3789                 3.9744                 4.6058
 Frc consts  --      0.8329                 2.4233                 2.8201
 IR Inten    --      0.0100                12.9131                17.7968

                     52                     53                     54
                      A                      A                      A
 Frequencies --   1021.8264              1023.6054              1064.4497
 Red. masses --      1.3972                 1.4651                 2.3638
 Frc consts  --      0.8596                 0.9044                 1.5780
 IR Inten    --      1.5382                 0.3931                12.8947

                     55                     56                     57
                      A                      A                      A
 Frequencies --   1072.1568              1081.4298              1106.2376
 Red. masses --      4.4132                 2.4072                 1.6926
 Frc consts  --      2.9890                 1.6586                 1.2204
 IR Inten    --     59.9290                21.1294                 8.3493

                     58                     59                     60
                      A                      A                      A
 Frequencies --   1117.6402              1120.3129              1148.4105
 Red. masses --      1.7996                 1.8801                 1.2340
 Frc consts  --      1.3244                 1.3903                 0.9589
 IR Inten    --     14.1800                14.5780                 0.7117

                     61                     62                     63
                      A                      A                      A
 Frequencies --   1157.7255              1168.6352              1170.5085
 Red. masses --      2.1559                 1.3706                 1.0852
 Frc consts  --      1.7025                 1.1028                 0.8760
 IR Inten    --     15.4732                22.7667                 1.9415

                     64                     65                     66
                      A                      A                      A
 Frequencies --   1186.5381              1197.8707              1237.2737
 Red. masses --      1.7467                 1.1091                 1.4699
 Frc consts  --      1.4488                 0.9376                 1.3258
 IR Inten    --      1.0432                 3.5954                27.8905

                     67                     68                     69
                      A                      A                      A
 Frequencies --   1239.9013              1252.5508              1266.7956
 Red. masses --      2.2228                 2.1610                 1.6915
 Frc consts  --      2.0133                 1.9975                 1.5993
 IR Inten    --     21.4212                 8.9611                 2.2956

                     70                     71                     72
                      A                      A                      A
 Frequencies --   1307.1543              1329.4052              1342.0458
 Red. masses --      2.3726                 1.4436                 1.9925
 Frc consts  --      2.3885                 1.5032                 2.1144
 IR Inten    --     20.7539                 3.3714                27.3032

                     73                     74                     75
                      A                      A                      A
 Frequencies --   1375.5475              1378.3940              1396.5397
 Red. masses --      1.5836                 3.5960                 1.9246
 Frc consts  --      1.7654                 4.0255                 2.2116
 IR Inten    --     19.3764                12.6142                79.1484

                     76                     77                     78
                      A                      A                      A
 Frequencies --   1407.6123              1437.1600              1445.8152
 Red. masses --      7.6158                 3.6242                 2.3981
 Frc consts  --      8.8906                 4.4103                 2.9535
 IR Inten    --      1.9104                 1.5005                16.6952

                     79                     80                     81
                      A                      A                      A
 Frequencies --   1461.2166              1464.1905              1469.4732
 Red. masses --      1.0838                 1.0653                 3.2583
 Frc consts  --      1.3635                 1.3456                 4.1453
 IR Inten    --      3.1046                 8.6106                 3.6285

                     82                     83                     84
                      A                      A                      A
 Frequencies --   1487.8668              1492.6536              1526.3587
 Red. masses --      1.3950                 2.0085                 3.7532
 Frc consts  --      1.8194                 2.6366                 5.1518
 IR Inten    --     11.2303                10.0970                 9.1776

                     85                     86                     87
                      A                      A                      A
 Frequencies --   1542.6710              1583.3564              1650.7060
 Red. masses --      2.6313                 5.3267                 7.1347
 Frc consts  --      3.6896                 7.8680                11.4542
 IR Inten    --     13.3455                33.5765                33.0417

                     88                     89                     90
                      A                      A                      A
 Frequencies --   1674.0660              1678.7435              1692.2624
 Red. masses --      6.5659                 6.6320                 7.9136
 Frc consts  --     10.8416                11.0120                13.3524
 IR Inten    --      1.2247                34.9826                34.2057

                     91                     92                     93
                      A                      A                      A
 Frequencies --   1698.0022              1728.1428              3056.9593
 Red. masses --      6.5592                10.6227                 1.0347
 Frc consts  --     11.1424                18.6915                 5.6972
 IR Inten    --      5.2879               140.8726                12.2747

                     94                     95                     96
                      A                      A                      A
 Frequencies --   3088.4487              3157.0707              3172.1650
 Red. masses --      1.0625                 1.1044                 1.1091
 Frc consts  --      5.9712                 6.4856                 6.5758
 IR Inten    --     29.5165                19.2511                 9.3234

                     97                     98                     99
                      A                      A                      A
 Frequencies --   3176.3485              3178.9867              3201.5380
 Red. masses --      1.1066                 1.0919                 1.0874
 Frc consts  --      6.5783                 6.5014                 6.5669
 IR Inten    --     13.0174                15.1944                 2.4047

                    100                    101                    102
                      A                      A                      A
 Frequencies --   3206.7369              3208.0777              3208.3984
 Red. masses --      1.0899                 1.0891                 1.0907
 Frc consts  --      6.6034                 6.6043                 6.6152
 IR Inten    --      0.1399                 0.8470                 5.9526

                    103                    104                    105
                      A                      A                      A
 Frequencies --   3219.9204              3229.9088              3231.3523
 Red. masses --      1.0938                 1.0951                 1.0992
 Frc consts  --      6.6814                 6.7309                 6.7623
 IR Inten    --     12.7911                11.3064                14.2810

                    106                    107                    108
                      A                      A                      A
 Frequencies --   3238.6162              3244.0393              3248.3175
 Red. masses --      1.0984                 1.0947                 1.0952
 Frc consts  --      6.7875                 6.7878                 6.8087
 IR Inten    --      9.7964                 6.0581                 0.8630

 - Thermochemistry -
 -------------------
 Temperature   298.150 Kelvin.  Pressure   1.00000 Atm.
 Atom     1 has atomic number  6 and mass  12.00000

 Molecular mass:   288.12626 amu.
 Principal axes and moments of inertia in atomic units:
                           1         2         3
     Eigenvalues --  3206.15199********************
           X            0.99999   0.00125  -0.00403
           Y           -0.00130   0.99993  -0.01190
           Z            0.00402   0.01190   0.99992
 This molecule is an asymmetric top.
 Rotational symmetry number  1.
 Warning -- assumption of classical behavior for rotation
           may cause significant error
 Rotational temperatures (Kelvin)      0.02701     0.00819     0.00691
 Rotational constants (GHZ):           0.56290     0.17074     0.14398
    1 imaginary frequencies ignored.
 Zero-point vibrational energy     811604.3 (Joules/Mol)
                                  193.97807 (Kcal/Mol)
 Warning -- explicit consideration of  25 degrees of freedom as
           vibrations may cause significant error
 Vibrational temperatures:     19.46    33.32    93.57   105.02   183.00
          (Kelvin)            215.15   260.83   292.82   345.46   380.59
                              397.28   458.05   471.75   508.99   547.66
                              596.20   610.05   626.06   675.29   697.36
                              736.97   786.44   794.68   831.06   854.85
                              908.67   945.76   956.81   981.90  1034.81
                             1061.93  1127.51  1132.25  1184.80  1187.22
                             1192.86  1213.19  1236.76  1270.75  1302.75
                             1316.51  1354.06  1381.77  1387.80  1398.53
                             1403.71  1438.68  1456.79  1463.66  1466.72
                             1470.18  1472.74  1531.51  1542.59  1555.94
                             1591.63  1608.03  1611.88  1652.31  1665.71
                             1681.41  1684.10  1707.16  1723.47  1780.16
                             1783.94  1802.14  1822.64  1880.70  1912.72
                             1930.90  1979.11  1983.20  2009.31  2025.24
                             2067.75  2080.21  2102.36  2106.64  2114.24
                             2140.71  2147.60  2196.09  2219.56  2278.10
                             2375.00  2408.61  2415.34  2434.79  2443.05
                             2486.41  4398.28  4443.59  4542.32  4564.04
                             4570.06  4573.85  4606.30  4613.78  4615.71
                             4616.17  4632.75  4647.12  4649.20  4659.65
                             4667.45  4673.60

 Zero-point correction=                           0.309124 (Hartree/Particle)
 Thermal correction to Energy=                    0.325254
 Thermal correction to Enthalpy=                  0.326198
 Thermal correction to Gibbs Free Energy=         0.263525
 Sum of electronic and zero-point Energies=           -916.394882
 Sum of electronic and thermal Energies=              -916.378752
 Sum of electronic and thermal Enthalpies=            -916.377808
 Sum of electronic and thermal Free Energies=         -916.440481

                     E (Thermal)             CV                S
                      KCal/Mol        Cal/Mol-Kelvin    Cal/Mol-Kelvin
 Total                  204.100             66.342            131.907
 Electronic               0.000              0.000              0.000
 Translational            0.889              2.981             42.872
 Rotational               0.889              2.981             34.406
 Vibrational            202.323             60.380             54.628
 Vibration     1          0.593              1.986              7.411
 Vibration     2          0.593              1.985              6.343
 Vibration     3          0.597              1.971              4.298
 Vibration     4          0.599              1.967              4.071
 Vibration     5          0.611              1.926              2.988
 Vibration     6          0.618              1.903              2.678
 Vibration     7          0.630              1.865              2.315
 Vibration     8          0.639              1.835              2.101
 Vibration     9          0.657              1.779              1.802
 Vibration    10          0.671              1.738              1.632
 Vibration    11          0.678              1.718              1.558
 Vibration    12          0.705              1.638              1.319
 Vibration    13          0.711              1.620              1.271
 Vibration    14          0.730              1.568              1.149
 Vibration    15          0.750              1.511              1.037
 Vibration    16          0.778              1.439              0.911
 Vibration    17          0.786              1.418              0.878
 Vibration    18          0.796              1.394              0.842
 Vibration    19          0.826              1.318              0.739
 Vibration    20          0.841              1.284              0.698
 Vibration    21          0.867              1.223              0.628
 Vibration    22          0.902              1.147              0.551
 Vibration    23          0.908              1.135              0.539
 Vibration    24          0.934              1.080              0.490
 Vibration    25          0.952              1.044              0.460

 Normal termination of Gaussian 16 at Thu Nov  3 08:23:12 2022.
