 Gaussian 16, Revision A.03,
 Gaussian 16:  ES64L-G16RevA.03 25-Dec-2016

 ----------------------------------------------------------------------
 #p pop=(regular,nbo,savenbos) freq=noraman def2svp empiricaldispersion
 =gd3bj output=wfx pbe1pbe
 ----------------------------------------------------------------------

 --------
 23_lig_b
 --------
 Symbolic Z-matrix:
 Charge =  0 Multiplicity = 1

                         Standard orientation:
 ---------------------------------------------------------------------
 Center     Atomic      Atomic             Coordinates (Angstroms)
 Number     Number       Type             X           Y           Z
 ---------------------------------------------------------------------
      1          6           0        4.134993   -0.141544   -0.009028
      2          6           0        2.744215    0.449189    0.229204
      3          6           0        1.778788   -0.188240   -0.800839
      4          1           0        2.157197    0.035632   -1.810738
      5          6           0        1.494542   -1.695234   -0.605624
      6          8           0        0.121064   -1.752339   -0.143963
      7          6           0       -0.362916   -0.535386   -0.324084
      8          7           0        0.441960    0.378599   -0.709457
      9          7           0       -2.075982    1.035397   -0.478619
     10          6           0       -1.779998   -0.218819   -0.108768
     11          6           0       -2.721836   -1.089112    0.423942
     12          6           0       -4.024389   -0.610910    0.580236
     13          6           0       -4.322686    0.694524    0.203159
     14          6           0       -3.309665    1.496432   -0.330728
     15          6           0        2.284929    0.167155    1.660447
     16          6           0        2.790806    1.962264    0.003399
     17          1           0        4.859548    0.292003    0.696731
     18          1           0        4.486938    0.078196   -1.029004
     19          1           0        4.156543   -1.234513    0.131988
     20          1           0        2.123112   -2.180485    0.151113
     21          1           0        1.548399   -2.268472   -1.542396
     22          1           0       -2.434781   -2.103066    0.705761
     23          1           0       -4.799729   -1.257947    0.996516
     24          1           0       -5.330500    1.097960    0.315271
     25          1           0       -3.450659    2.536359   -0.649444
     26          1           0        2.963479    0.655411    2.376209
     27          1           0        2.277055   -0.907362    1.903438
     28          1           0        1.276250    0.570747    1.840475
     29          1           0        3.576140    2.411215    0.630824
     30          1           0        1.836772    2.440256    0.273307
     31          1           0        2.983180    2.212884   -1.049711
 ---------------------------------------------------------------------

 SCF Done:  E(RPBE1PBE) =  -650.429098576     A.U. after   14 cycles

 The electronic state is 1-A.
 Alpha  occ. eigenvalues --  -19.24969 -14.38445 -14.35555 -10.31141 -10.29002
 Alpha  occ. eigenvalues --  -10.28178 -10.27364 -10.26289 -10.25945 -10.25486
 Alpha  occ. eigenvalues --  -10.25304 -10.24366 -10.22457 -10.21905 -10.21190
 Alpha  occ. eigenvalues --   -1.12192  -0.97216  -0.91644  -0.84082  -0.82489
 Alpha  occ. eigenvalues --   -0.80344  -0.75604  -0.69793  -0.69210  -0.66814
 Alpha  occ. eigenvalues --   -0.65993  -0.63835  -0.58789  -0.55811  -0.53996
 Alpha  occ. eigenvalues --   -0.51529  -0.50820  -0.50331  -0.47492  -0.46644
 Alpha  occ. eigenvalues --   -0.45216  -0.44775  -0.44362  -0.42923  -0.42404
 Alpha  occ. eigenvalues --   -0.40961  -0.39524  -0.39103  -0.38514  -0.37650
 Alpha  occ. eigenvalues --   -0.36883  -0.36653  -0.34425  -0.33588  -0.33029
 Alpha  occ. eigenvalues --   -0.30739  -0.28890  -0.27853  -0.25050  -0.24426
 Alpha virt. eigenvalues --   -0.04587  -0.02269   0.05818   0.06875   0.07435
 Alpha virt. eigenvalues --    0.09334   0.09706   0.10510   0.11488   0.12206
 Alpha virt. eigenvalues --    0.13306   0.13841   0.14373   0.14765   0.15553

 Mulliken charges:
               1
     1  C    0.025683
     2  C   -0.383648
     3  C   -0.020534
     4  H    0.035225
     5  C    0.242125
     6  O   -0.341301
     7  C    0.171220
     8  N   -0.195025
     9  N   -0.130317
    10  C   -0.049720
    11  C    0.003505
    12  C    0.027622
    13  C   -0.049015
    14  C    0.054896
    15  C    0.003955
    16  C    0.035996
    17  H    0.037892
    18  H    0.034443
    19  H    0.024450
    20  H    0.046928
    21  H    0.049991
    22  H    0.031246
    23  H    0.034842
    24  H    0.032825
    25  H    0.043230
    26  H    0.035691
    27  H    0.027696
    28  H    0.056437
    29  H    0.027349
    30  H    0.056582
    31  H    0.029732
 Sum of Mulliken charges =  -0.00000

 Dipole moment (field-independent basis, Debye):
    X=             -0.6780    Y=             -1.7300    Z=              0.7654  Tot=              2.0095
 Quadrupole moment (field-independent basis, Debye-Ang):
   XX=            -72.7738   YY=            -88.7887   ZZ=            -90.4577
   XY=             -1.9948   XZ=             -3.3702   YZ=              1.1559

  Exact polarizability: 196.573  -3.837 134.765 -11.838  -8.450  99.232
 Approx polarizability: 248.619   0.638 215.665 -23.490 -23.947 149.950

 Summary of Natural Population Analysis:

                                       Natural Population
                Natural  -----------------------------------------------
    Atom  No    Charge         Core      Valence    Rydberg      Total
 -----------------------------------------------------------------------
      C    1   -0.65021      1.99918     4.63751    0.01353     6.65021
      C    2   -0.08191      1.99886     4.06654    0.01651     6.08191
      C    3   -0.09000      1.99895     4.06367    0.02738     6.09000
      H    4    0.24461      0.00000     0.75191    0.00348     0.75539
      C    5   -0.08413      1.99904     4.06585    0.01924     6.08413
      O    6   -0.56066      1.99965     6.55041    0.01059     8.56066
      C    7    0.57324      1.99897     3.38399    0.04380     5.42676
      N    8   -0.51986      1.99932     5.50398    0.01656     7.51986
      N    9   -0.44119      1.99926     5.42545    0.01648     7.44119
      C   10    0.14838      1.99887     3.82693    0.02582     5.85162
      C   11   -0.23917      1.99894     4.22530    0.01494     6.23917
      C   12   -0.19802      1.99897     4.18385    0.01520     6.19802
      C   13   -0.26382      1.99897     4.25113    0.01372     6.26382
      C   14    0.05910      1.99904     3.91781    0.02405     5.94090
      C   15   -0.66092      1.99918     4.64775    0.01399     6.66092
      C   16   -0.64926      1.99918     4.63553    0.01455     6.64926
      H   17    0.23018      0.00000     0.76728    0.00255     0.76982
      H   18    0.22525      0.00000     0.77213    0.00263     0.77475
      H   19    0.21819      0.00000     0.77930    0.00251     0.78181
      H   20    0.21164      0.00000     0.78542    0.00294     0.78836
      H   21    0.21420      0.00000     0.78278    0.00302     0.78580
      H   22    0.24738      0.00000     0.74955    0.00307     0.75262
      H   23    0.23711      0.00000     0.76031    0.00259     0.76289
      H   24    0.23466      0.00000     0.76236    0.00299     0.76534
      H   25    0.21743      0.00000     0.77990    0.00267     0.78257
      H   26    0.23019      0.00000     0.76731    0.00250     0.76981
      H   27    0.21967      0.00000     0.77793    0.00239     0.78033
      H   28    0.23741      0.00000     0.75978    0.00281     0.76259
      H   29    0.22005      0.00000     0.77742    0.00253     0.77995
      H   30    0.24570      0.00000     0.75151    0.00279     0.75430
      H   31    0.22474      0.00000     0.77278    0.00247     0.77526
 =======================================================================
   * Total *   -0.00000     29.98639    79.68336    0.33026   110.00000

 ******    1 imaginary frequencies (negative Signs) ******

                      1                      2                      3
                      A                      A                      A
 Frequencies --    -26.5272                13.4952                66.7807
 Red. masses --      5.0058                 4.3993                 2.8071
 Frc consts  --      0.0021                 0.0005                 0.0074
 IR Inten    --      0.1240                 2.1522                 0.0840

                      4                      5                      6
                      A                      A                      A
 Frequencies --     97.9082               137.1227               184.5437
 Red. masses --      4.3875                 3.9217                 3.0987
 Frc consts  --      0.0248                 0.0434                 0.0622
 IR Inten    --      0.9342                 3.1851                 0.6770

                      7                      8                      9
                      A                      A                      A
 Frequencies --    208.5654               244.9207               252.8521
 Red. masses --      1.1677                 1.5201                 1.5549
 Frc consts  --      0.0299                 0.0537                 0.0586
 IR Inten    --      0.7140                 0.8844                 1.4536

                     10                     11                     12
                      A                      A                      A
 Frequencies --    269.5262               291.0530               297.1262
 Red. masses --      1.1459                 3.2951                 2.3030
 Frc consts  --      0.0490                 0.1645                 0.1198
 IR Inten    --      0.1455                 1.0302                 0.1495

                     13                     14                     15
                      A                      A                      A
 Frequencies --    342.1197               383.8799               395.7659
 Red. masses --      2.4883                 2.7764                 2.6504
 Frc consts  --      0.1716                 0.2411                 0.2446
 IR Inten    --      0.4320                 0.5180                 0.1190

                     16                     17                     18
                      A                      A                      A
 Frequencies --    417.1651               437.4712               469.1261
 Red. masses --      3.2241                 4.3431                 3.3562
 Frc consts  --      0.3306                 0.4897                 0.4352
 IR Inten    --      1.9599                 3.7430                 0.7330

                     19                     20                     21
                      A                      A                      A
 Frequencies --    490.4415               558.3587               629.5773
 Red. masses --      2.7924                 3.8296                 7.1348
 Frc consts  --      0.3957                 0.7034                 1.6662
 IR Inten    --      0.7866                 0.9185                 4.4908

                     22                     23                     24
                      A                      A                      A
 Frequencies --    684.5367               734.8428               750.6008
 Red. masses --      3.6759                 6.5990                 2.7353
 Frc consts  --      1.0148                 2.0995                 0.9080
 IR Inten    --     18.7633                11.6825                15.0016

                     25                     26                     27
                      A                      A                      A
 Frequencies --    764.8603               809.6807               835.9991
 Red. masses --      1.6496                 5.4438                 3.3166
 Frc consts  --      0.5686                 2.1027                 1.3657
 IR Inten    --     15.0981                 6.1835                10.7253

                     28                     29                     30
                      A                      A                      A
 Frequencies --    870.6290               926.0394               943.3858
 Red. masses --      2.0967                 1.3352                 1.3672
 Frc consts  --      0.9364                 0.6746                 0.7169
 IR Inten    --      2.9476                 0.5482                 2.1352

                     31                     32                     33
                      A                      A                      A
 Frequencies --    946.4433               952.3866               959.5177
 Red. masses --      1.4797                 1.4591                 5.1934
 Frc consts  --      0.7810                 0.7798                 2.8171
 IR Inten    --      0.8750                 2.9976                20.3010

                     34                     35                     36
                      A                      A                      A
 Frequencies --    986.3166               989.9361               997.5915
 Red. masses --      1.8255                 1.4601                 3.9765
 Frc consts  --      1.0463                 0.8430                 2.3316
 IR Inten    --     16.8944                 0.2581                26.0184

                     37                     38                     39
                      A                      A                      A
 Frequencies --   1015.1255              1019.9337              1028.1832
 Red. masses --      2.4652                 3.6626                 1.3399
 Frc consts  --      1.4967                 2.2449                 0.8346
 IR Inten    --     11.1190                 1.9919                 0.0127

                     40                     41                     42
                      A                      A                      A
 Frequencies --   1050.8746              1064.9795              1068.9182
 Red. masses --      1.6972                 1.9534                 1.9576
 Frc consts  --      1.1043                 1.3053                 1.3178
 IR Inten    --      4.2620                 4.7891                 3.4937

                     43                     44                     45
                      A                      A                      A
 Frequencies --   1099.6481              1107.2477              1159.0145
 Red. masses --      2.9839                 1.4782                 1.0973
 Frc consts  --      2.1259                 1.0677                 0.8684
 IR Inten    --      6.5466                 6.5587                 0.2421

                     46                     47                     48
                      A                      A                      A
 Frequencies --   1194.7171              1214.3573              1230.1034
 Red. masses --      2.2392                 1.6009                 1.5600
 Frc consts  --      1.8831                 1.3909                 1.3908
 IR Inten    --     52.8358                15.3696                25.3455

                     49                     50                     51
                      A                      A                      A
 Frequencies --   1248.8888              1279.6437              1285.3677
 Red. masses --      1.9157                 2.2122                 2.1437
 Frc consts  --      1.7605                 2.1343                 2.0867
 IR Inten    --      0.3214                 2.1347                15.7393

                     52                     53                     54
                      A                      A                      A
 Frequencies --   1311.2230              1327.9507              1353.5951
 Red. masses --      1.3718                 1.5037                 1.8030
 Frc consts  --      1.3896                 1.5623                 1.9464
 IR Inten    --      1.7610                 2.6994                 5.1973

                     55                     56                     57
                      A                      A                      A
 Frequencies --   1375.1951              1379.9578              1384.4735
 Red. masses --      4.3567                 1.3941                 1.4268
 Frc consts  --      4.8544                 1.5642                 1.6114
 IR Inten    --      7.8229                10.5985                10.4820

                     58                     59                     60
                      A                      A                      A
 Frequencies --   1405.7042              1442.3723              1453.1516
 Red. masses --      1.2590                 1.0580                 1.1445
 Frc consts  --      1.4658                 1.2968                 1.4239
 IR Inten    --     14.5114                 1.0971                23.7221

                     61                     62                     63
                      A                      A                      A
 Frequencies --   1456.0205              1458.8659              1473.5231
 Red. masses --      1.2949                 1.1137                 1.2285
 Frc consts  --      1.6175                 1.3965                 1.5716
 IR Inten    --     34.1612                13.2437                 2.2912

                     64                     65                     66
                      A                      A                      A
 Frequencies --   1476.2531              1478.0930              1489.1344
 Red. masses --      1.7486                 1.4138                 1.1663
 Frc consts  --      2.2453                 1.8198                 1.5239
 IR Inten    --      8.6678                27.7755                35.1009

                     67                     68                     69
                      A                      A                      A
 Frequencies --   1493.8360              1554.6023              1662.6583
 Red. masses --      1.1431                 4.9107                 7.1401
 Frc consts  --      1.5029                 6.9924                11.6294
 IR Inten    --     22.0246                37.0414                29.0719

                     70                     71                     72
                      A                      A                      A
 Frequencies --   1676.7544              1743.7028              3046.6188
 Red. masses --      7.1463                10.8198                 1.0368
 Frc consts  --     11.8378                19.3827                 5.6701
 IR Inten    --     68.6346                67.1686                22.9056

                     73                     74                     75
                      A                      A                      A
 Frequencies --   3052.0841              3058.7426              3083.7515
 Red. masses --      1.0372                 1.0379                 1.0855
 Frc consts  --      5.6927                 5.7211                 6.0819
 IR Inten    --     20.5775                17.9949                19.5967

                     76                     77                     78
                      A                      A                      A
 Frequencies --   3102.0670              3137.6266              3142.5802
 Red. masses --      1.0644                 1.1029                 1.1026
 Frc consts  --      6.0347                 6.3972                 6.4159
 IR Inten    --     38.5613                16.3991                26.8088

                     79                     80                     81
                      A                      A                      A
 Frequencies --   3148.8135              3149.7375              3153.0034
 Red. masses --      1.1037                 1.1038                 1.1025
 Frc consts  --      6.4477                 6.4521                 6.4579
 IR Inten    --     11.2805                 3.9105                32.7336

                     82                     83                     84
                      A                      A                      A
 Frequencies --   3160.8527              3175.0635              3177.9990
 Red. masses --      1.1038                 1.1093                 1.0927
 Frc consts  --      6.4975                 6.5886                 6.5022
 IR Inten    --     20.3749                18.4953                15.2325

                     85                     86                     87
                      A                      A                      A
 Frequencies --   3217.1579              3234.7621              3242.8605
 Red. masses --      1.0896                 1.0962                 1.0984
 Frc consts  --      6.6447                 6.7583                 6.8054
 IR Inten    --      3.6911                 9.1270                 1.1166

 - Thermochemistry -
 -------------------
 Temperature   298.150 Kelvin.  Pressure   1.00000 Atm.
 Atom     1 has atomic number  6 and mass  12.00000

 Molecular mass:   204.12626 amu.
 Principal axes and moments of inertia in atomic units:
                           1         2         3
     Eigenvalues --  1209.623565463.938356035.04059
           X            0.99999   0.00471   0.00080
           Y           -0.00471   0.99999  -0.00108
           Z           -0.00081   0.00108   1.00000
 This molecule is an asymmetric top.
 Rotational symmetry number  1.
 Warning -- assumption of classical behavior for rotation
           may cause significant error
 Rotational temperatures (Kelvin)      0.07160     0.01585     0.01435
 Rotational constants (GHZ):           1.49199     0.33030     0.29904
    1 imaginary frequencies ignored.
 Zero-point vibrational energy     694362.6 (Joules/Mol)
                                  165.95664 (Kcal/Mol)
 Warning -- explicit consideration of  19 degrees of freedom as
           vibrations may cause significant error
 Vibrational temperatures:     19.42    96.08   140.87   197.29   265.52
          (Kelvin)            300.08   352.39   363.80   387.79   418.76
                              427.50   492.23   552.32   569.42   600.21
                              629.42   674.97   705.64   803.35   905.82
                              984.90  1057.27  1079.95  1100.46  1164.95
                             1202.82  1252.64  1332.36  1357.32  1361.72
                             1370.27  1380.53  1419.09  1424.30  1435.31
                             1460.54  1467.46  1479.33  1511.97  1532.27
                             1537.93  1582.15  1593.08  1667.56  1718.93
                             1747.19  1769.84  1796.87  1841.12  1849.36
                             1886.56  1910.62  1947.52  1978.60  1985.45
                             1991.95  2022.49  2075.25  2090.76  2094.89
                             2098.98  2120.07  2124.00  2126.65  2142.53
                             2149.30  2236.73  2392.19  2412.48  2508.80
                             4383.40  4391.27  4400.85  4436.83  4463.18
                             4514.34  4521.47  4530.44  4531.77  4536.47
                             4547.76  4568.21  4572.43  4628.77  4654.10
                             4665.75

 Zero-point correction=                           0.264469 (Hartree/Particle)
 Thermal correction to Energy=                    0.277642
 Thermal correction to Enthalpy=                  0.278586
 Thermal correction to Gibbs Free Energy=         0.223872
 Sum of electronic and zero-point Energies=           -650.164630
 Sum of electronic and thermal Energies=              -650.151457
 Sum of electronic and thermal Enthalpies=            -650.150513
 Sum of electronic and thermal Free Energies=         -650.205226

                     E (Thermal)             CV                S
                      KCal/Mol        Cal/Mol-Kelvin    Cal/Mol-Kelvin
 Total                  174.223             52.031            115.154
 Electronic               0.000              0.000              0.000
 Translational            0.889              2.981             41.845
 Rotational               0.889              2.981             32.056
 Vibrational            172.445             46.069             41.253
 Vibration     1          0.593              1.987              7.416
 Vibration     2          0.598              1.970              4.246
 Vibration     3          0.603              1.951              3.496
 Vibration     4          0.614              1.916              2.844
 Vibration     5          0.631              1.861              2.282
 Vibration     6          0.642              1.828              2.056
 Vibration     7          0.660              1.771              1.767
 Vibration     8          0.664              1.758              1.711
 Vibration     9          0.674              1.729              1.599
 Vibration    10          0.687              1.690              1.468
 Vibration    11          0.691              1.679              1.433
 Vibration    12          0.721              1.591              1.202
 Vibration    13          0.753              1.505              1.024
 Vibration    14          0.762              1.479              0.978
 Vibration    15          0.780              1.433              0.902
 Vibration    16          0.798              1.389              0.835
 Vibration    17          0.826              1.319              0.740
 Vibration    18          0.846              1.271              0.682
 Vibration    19          0.914              1.121              0.527

 Normal termination of Gaussian 16 at Thu Nov  3 08:15:22 2022.
