 Gaussian 16, Revision A.03,
 Gaussian 16:  ES64L-G16RevA.03 25-Dec-2016

 ----------------------------------------------------------------------
 #p pop=(regular,nbo,savenbos) freq=noraman def2svp empiricaldispersion
 =gd3bj output=wfx pbe1pbe
 ----------------------------------------------------------------------

 --------
 24_lig_b
 --------
 Symbolic Z-matrix:
 Charge =  0 Multiplicity = 1

                         Standard orientation:
 ---------------------------------------------------------------------
 Center     Atomic      Atomic             Coordinates (Angstroms)
 Number     Number       Type             X           Y           Z
 ---------------------------------------------------------------------
      1          6           0       -2.882183    1.972102   -0.439805
      2          6           0       -2.929961    0.449629   -0.460853
      3          6           0       -1.982412   -0.174964    0.573864
      4          1           0       -2.372650    0.033293    1.583966
      5          6           0       -1.703743   -1.679067    0.335053
      6          8           0       -0.295629   -1.744904   -0.004136
      7          6           0        0.177498   -0.524671    0.183305
      8          7           0       -0.644837    0.394415    0.514188
      9          7           0        1.885155    1.042735    0.416971
     10          6           0        1.605392   -0.213991    0.043265
     11          6           0        2.572005   -1.092975   -0.427167
     12          6           0        3.883346   -0.621359   -0.514513
     13          6           0        4.165289    0.686722   -0.134252
     14          6           0        3.127265    1.497698    0.333681
     15          6           0       -4.345310   -0.065316   -0.224684
     16          1           0       -3.638042    2.386034   -1.124092
     17          1           0       -1.900569    2.352694   -0.759098
     18          1           0       -3.062718    2.362670    0.573189
     19          1           0       -2.591002    0.102458   -1.456499
     20          1           0       -2.269535   -2.097141   -0.509147
     21          1           0       -1.858354   -2.307802    1.223192
     22          1           0        2.296995   -2.108667   -0.714706
     23          1           0        4.678121   -1.275483   -0.879950
     24          1           0        5.179475    1.085432   -0.193213
     25          1           0        3.254258    2.540268    0.649827
     26          1           0       -4.723836    0.282899    0.749783
     27          1           0       -4.402613   -1.165912   -0.234088
     28          1           0       -5.029847    0.305592   -1.001554
 ---------------------------------------------------------------------

 SCF Done:  E(RPBE1PBE) =  -611.186802083     A.U. after   14 cycles

 The electronic state is 1-A.
 Alpha  occ. eigenvalues --  -19.24965 -14.38416 -14.35546 -10.31147 -10.29093
 Alpha  occ. eigenvalues --  -10.28149 -10.27336 -10.26264 -10.26013 -10.25460
 Alpha  occ. eigenvalues --  -10.25278 -10.23622 -10.22611 -10.21240  -1.12183
 Alpha  occ. eigenvalues --   -0.97187  -0.91559  -0.83196  -0.82412  -0.79740
 Alpha  occ. eigenvalues --   -0.75369  -0.69367  -0.66833  -0.66057  -0.63901
 Alpha  occ. eigenvalues --   -0.58999  -0.57812  -0.54677  -0.51242  -0.50781
 Alpha  occ. eigenvalues --   -0.50242  -0.47465  -0.47334  -0.44603  -0.44354
 Alpha  occ. eigenvalues --   -0.43127  -0.43086  -0.41808  -0.39650  -0.39116
 Alpha  occ. eigenvalues --   -0.38607  -0.38318  -0.37434  -0.34744  -0.34455
 Alpha  occ. eigenvalues --   -0.33352  -0.30723  -0.28880  -0.27868  -0.25076
 Alpha  occ. eigenvalues --   -0.24436
 Alpha virt. eigenvalues --   -0.04538  -0.02242   0.06242   0.07183   0.07422
 Alpha virt. eigenvalues --    0.09119   0.09498   0.10452   0.11471   0.13226
 Alpha virt. eigenvalues --    0.13672   0.14186   0.15044   0.15361   0.16007

 Mulliken charges:
               1
     1  C   -0.007078
     2  C   -0.169029
     3  C   -0.068886
     4  H    0.037928
     5  C    0.248136
     6  O   -0.340356
     7  C    0.168518
     8  N   -0.196744
     9  N   -0.130994
    10  C   -0.046326
    11  C    0.003203
    12  C    0.028009
    13  C   -0.049439
    14  C    0.054940
    15  C   -0.029552
    16  H    0.030723
    17  H    0.060602
    18  H    0.033587
    19  H    0.025292
    20  H    0.044910
    21  H    0.050131
    22  H    0.031388
    23  H    0.034744
    24  H    0.032753
    25  H    0.043240
    26  H    0.036944
    27  H    0.029227
    28  H    0.044130
 Sum of Mulliken charges =  -0.00000

 Dipole moment (field-independent basis, Debye):
    X=              0.6411    Y=             -1.8157    Z=             -0.7142  Tot=              2.0537
 Quadrupole moment (field-independent basis, Debye-Ang):
   XX=            -65.8129   YY=            -82.2957   ZZ=            -83.7287
   XY=              2.4184   XZ=             -2.3730   YZ=             -0.5022

  Exact polarizability: 187.957   3.655 127.151  -8.526   8.608  85.043
 Approx polarizability: 235.419  -2.111 200.840 -18.589  24.016 131.642

 Summary of Natural Population Analysis:

                                       Natural Population
                Natural  -----------------------------------------------
    Atom  No    Charge         Core      Valence    Rydberg      Total
 -----------------------------------------------------------------------
      C    1   -0.65083      1.99923     4.63974    0.01187     6.65083
      C    2   -0.26034      1.99899     4.24577    0.01558     6.26034
      C    3   -0.08900      1.99899     4.06592    0.02409     6.08900
      H    4    0.23749      0.00000     0.75845    0.00406     0.76251
      C    5   -0.08256      1.99905     4.06484    0.01867     6.08256
      O    6   -0.56094      1.99965     6.55079    0.01050     8.56094
      C    7    0.57301      1.99898     3.38403    0.04398     5.42699
      N    8   -0.51918      1.99932     5.50341    0.01645     7.51918
      N    9   -0.44111      1.99926     5.42538    0.01647     7.44111
      C   10    0.14864      1.99888     3.82666    0.02582     5.85136
      C   11   -0.23949      1.99894     4.22564    0.01492     6.23949
      C   12   -0.19810      1.99897     4.18393    0.01520     6.19810
      C   13   -0.26390      1.99897     4.25122    0.01371     6.26390
      C   14    0.05899      1.99904     3.91791    0.02406     5.94101
      C   15   -0.65179      1.99922     4.64172    0.01085     6.65179
      H   16    0.21900      0.00000     0.77846    0.00254     0.78100
      H   17    0.24559      0.00000     0.75160    0.00281     0.75441
      H   18    0.21985      0.00000     0.77728    0.00288     0.78015
      H   19    0.22915      0.00000     0.76604    0.00481     0.77085
      H   20    0.20967      0.00000     0.78736    0.00297     0.79033
      H   21    0.21316      0.00000     0.78390    0.00294     0.78684
      H   22    0.24722      0.00000     0.74970    0.00308     0.75278
      H   23    0.23704      0.00000     0.76038    0.00259     0.76296
      H   24    0.23461      0.00000     0.76240    0.00299     0.76539
      H   25    0.21745      0.00000     0.77989    0.00267     0.78255
      H   26    0.21948      0.00000     0.77747    0.00305     0.78052
      H   27    0.21733      0.00000     0.78018    0.00250     0.78267
      H   28    0.22958      0.00000     0.76795    0.00247     0.77042
 =======================================================================
   * Total *    0.00000     27.98747    73.70800    0.30453   102.00000

 ******    1 imaginary frequencies (negative Signs) ******

                      1                      2                      3
                      A                      A                      A
 Frequencies --    -50.3500                16.1812                73.3954
 Red. masses --      5.2039                 4.4163                 2.7234
 Frc consts  --      0.0078                 0.0007                 0.0086
 IR Inten    --      0.1849                 1.8960                 0.2265

                      4                      5                      6
                      A                      A                      A
 Frequencies --     92.7061               132.5921               185.0526
 Red. masses --      3.8752                 3.8225                 3.7056
 Frc consts  --      0.0196                 0.0396                 0.0748
 IR Inten    --      1.1456                 3.0122                 1.2522

                      7                      8                      9
                      A                      A                      A
 Frequencies --    204.0412               231.6720               250.9864
 Red. masses --      1.1596                 1.6930                 1.3946
 Frc consts  --      0.0284                 0.0535                 0.0518
 IR Inten    --      0.2973                 1.6328                 0.4067

                     10                     11                     12
                      A                      A                      A
 Frequencies --    291.2784               343.8309               376.4480
 Red. masses --      3.1328                 2.8536                 2.7428
 Frc consts  --      0.1566                 0.1988                 0.2290
 IR Inten    --      0.6022                 0.5810                 0.2325

                     13                     14                     15
                      A                      A                      A
 Frequencies --    417.1551               430.4964               450.8629
 Red. masses --      3.2883                 4.8899                 2.6235
 Frc consts  --      0.3371                 0.5339                 0.3142
 IR Inten    --      2.3253                 2.8637                 0.1507

                     16                     17                     18
                      A                      A                      A
 Frequencies --    476.4394               549.1494               629.5031
 Red. masses --      3.9271                 4.3157                 7.1424
 Frc consts  --      0.5252                 0.7668                 1.6676
 IR Inten    --      0.9935                 1.8848                 4.4823

                     19                     20                     21
                      A                      A                      A
 Frequencies --    694.3619               734.4736               764.3817
 Red. masses --      3.9002                 6.5887                 1.5396
 Frc consts  --      1.1079                 2.0941                 0.5300
 IR Inten    --     22.1331                11.0067                22.3812

                     22                     23                     24
                      A                      A                      A
 Frequencies --    780.8068               821.9044               836.6427
 Red. masses --      2.9952                 3.1782                 3.2314
 Frc consts  --      1.0759                 1.2649                 1.3327
 IR Inten    --      9.1451                 5.1313                 8.5480

                     25                     26                     27
                      A                      A                      A
 Frequencies --    914.9438               926.1275               930.6701
 Red. masses --      1.7068                 1.3358                 1.3813
 Frc consts  --      0.8418                 0.6751                 0.7049
 IR Inten    --      1.6977                 0.5743                 0.3360

                     28                     29                     30
                      A                      A                      A
 Frequencies --    958.5237               970.6691               975.6239
 Red. masses --      2.8862                 1.8530                 1.4223
 Frc consts  --      1.5623                 1.0287                 0.7977
 IR Inten    --     14.3024                 9.3670                15.5318

                     31                     32                     33
                      A                      A                      A
 Frequencies --    990.0558               999.8635              1018.1757
 Red. masses --      1.4609                 6.1050                 6.3105
 Frc consts  --      0.8437                 3.5960                 3.8544
 IR Inten    --      0.3292                38.5328                 7.7380

                     34                     35                     36
                      A                      A                      A
 Frequencies --   1028.1551              1043.6398              1068.4392
 Red. masses --      1.3401                 2.6144                 2.0716
 Frc consts  --      0.8346                 1.6777                 1.3933
 IR Inten    --      0.0162                 4.7776                 6.1276

                     37                     38                     39
                      A                      A                      A
 Frequencies --   1093.0839              1107.3188              1158.9622
 Red. masses --      3.3257                 1.4740                 1.1281
 Frc consts  --      2.3412                 1.0648                 0.8928
 IR Inten    --      7.2261                 6.5095                 0.5436

                     40                     41                     42
                      A                      A                      A
 Frequencies --   1159.6481              1171.6771              1194.0236
 Red. masses --      1.8670                 2.0084                 1.5395
 Frc consts  --      1.4792                 1.6245                 1.2932
 IR Inten    --      2.2610                 0.8466                 3.8060

                     43                     44                     45
                      A                      A                      A
 Frequencies --   1198.9459              1232.6947              1272.9289
 Red. masses --      2.9118                 1.3315                 1.4225
 Frc consts  --      2.4661                 1.1921                 1.3580
 IR Inten    --     67.9619                 2.8820                21.0174

                     46                     47                     48
                      A                      A                      A
 Frequencies --   1286.5459              1311.4053              1337.9534
 Red. masses --      1.3512                 1.3634                 1.6543
 Frc consts  --      1.3177                 1.3815                 1.7448
 IR Inten    --      4.2623                 2.9050                 9.1629

                     49                     50                     51
                      A                      A                      A
 Frequencies --   1339.2391              1374.6367              1382.9224
 Red. masses --      1.3640                 4.6502                 1.6581
 Frc consts  --      1.4414                 5.1773                 1.8683
 IR Inten    --      0.5593                 5.8988                 1.2483

                     52                     53                     54
                      A                      A                      A
 Frequencies --   1389.9196              1399.7547              1453.5653
 Red. masses --      1.4539                 1.2787                 1.0634
 Frc consts  --      1.6549                 1.4762                 1.3238
 IR Inten    --     11.2743                10.0579                 6.4311

                     55                     56                     57
                      A                      A                      A
 Frequencies --   1457.1830              1459.1923              1473.1071
 Red. masses --      1.0457                 1.8369                 1.0610
 Frc consts  --      1.3083                 2.3044                 1.3565
 IR Inten    --      1.1619                80.8113                 6.7973

                     58                     59                     60
                      A                      A                      A
 Frequencies --   1476.4034              1482.4967              1488.2126
 Red. masses --      2.5307                 1.0793                 1.3662
 Frc consts  --      3.2501                 1.3976                 1.7828
 IR Inten    --     16.5977                11.2715                45.2728

                     61                     62                     63
                      A                      A                      A
 Frequencies --   1554.3450              1662.9790              1677.0848
 Red. masses --      4.9440                 7.1526                 7.1289
 Frc consts  --      7.0376                11.6544                11.8136
 IR Inten    --     38.0864                28.3981                68.2745

                     64                     65                     66
                      A                      A                      A
 Frequencies --   1746.8434              3025.8123              3048.3787
 Red. masses --     10.8825                 1.0847                 1.0375
 Frc consts  --     19.5654                 5.8512                 5.6805
 IR Inten    --     72.6698                11.7911                22.0823

                     67                     68                     69
                      A                      A                      A
 Frequencies --   3059.6305              3073.5874              3096.1956
 Red. masses --      1.0376                 1.0866                 1.0603
 Frc consts  --      5.7231                 6.0480                 5.9887
 IR Inten    --     20.8458                30.0309                35.3262

                     70                     71                     72
                      A                      A                      A
 Frequencies --   3137.2301              3152.4050              3156.5731
 Red. masses --      1.1031                 1.1036                 1.1041
 Frc consts  --      6.3969                 6.4616                 6.4818
 IR Inten    --     23.7437                 6.2675                33.0828

                     73                     74                     75
                      A                      A                      A
 Frequencies --   3160.0729              3164.1552              3177.5520
 Red. masses --      1.1025                 1.1131                 1.0927
 Frc consts  --      6.4870                 6.5662                 6.5004
 IR Inten    --     12.4268                19.8734                15.3970

                     76                     77                     78
                      A                      A                      A
 Frequencies --   3217.1646              3234.7417              3242.8435
 Red. masses --      1.0896                 1.0962                 1.0984
 Frc consts  --      6.6446                 6.7581                 6.8054
 IR Inten    --      3.6925                 9.0725                 1.1645

 - Thermochemistry -
 -------------------
 Temperature   298.150 Kelvin.  Pressure   1.00000 Atm.
 Atom     1 has atomic number  6 and mass  12.00000

 Molecular mass:   190.11061 amu.
 Principal axes and moments of inertia in atomic units:
                           1         2         3
     Eigenvalues --  1011.083545001.248675753.48318
           X            0.99998  -0.00582   0.00057
           Y            0.00583   0.99998  -0.00353
           Z           -0.00055   0.00353   0.99999
 This molecule is an asymmetric top.
 Rotational symmetry number  1.
 Warning -- assumption of classical behavior for rotation
           may cause significant error
 Rotational temperatures (Kelvin)      0.08566     0.01732     0.01505
 Rotational constants (GHZ):           1.78496     0.36086     0.31368
    1 imaginary frequencies ignored.
 Zero-point vibrational energy     621452.0 (Joules/Mol)
                                  148.53060 (Kcal/Mol)
 Warning -- explicit consideration of  16 degrees of freedom as
           vibrations may cause significant error
 Vibrational temperatures:     23.28   105.60   133.38   190.77   266.25
          (Kelvin)            293.57   333.32   361.11   419.08   494.70
                              541.62   600.19   619.39   648.69   685.49
                              790.10   905.71   999.03  1056.74  1099.77
                             1123.41  1182.54  1203.74  1316.40  1332.49
                             1339.03  1379.10  1396.58  1403.71  1424.47
                             1438.58  1464.93  1479.29  1501.56  1537.25
                             1572.70  1593.18  1667.49  1668.47  1685.78
                             1717.93  1725.02  1773.57  1831.46  1851.05
                             1886.82  1925.02  1926.87  1977.80  1989.72
                             1999.78  2013.93  2091.36  2096.56  2099.45
                             2119.47  2124.22  2132.98  2141.21  2236.36
                             2392.66  2412.95  2513.32  4353.47  4385.94
                             4402.13  4422.21  4454.73  4513.77  4535.61
                             4541.60  4546.64  4552.51  4571.79  4628.78
                             4654.07  4665.73

 Zero-point correction=                           0.236699 (Hartree/Particle)
 Thermal correction to Energy=                    0.248627
 Thermal correction to Enthalpy=                  0.249571
 Thermal correction to Gibbs Free Energy=         0.197195
 Sum of electronic and zero-point Energies=           -610.950104
 Sum of electronic and thermal Energies=              -610.938175
 Sum of electronic and thermal Enthalpies=            -610.937231
 Sum of electronic and thermal Free Energies=         -610.989608

                     E (Thermal)             CV                S
                      KCal/Mol        Cal/Mol-Kelvin    Cal/Mol-Kelvin
 Total                  156.016             46.177            110.235
 Electronic               0.000              0.000              0.000
 Translational            0.889              2.981             41.633
 Rotational               0.889              2.981             31.743
 Vibrational            154.238             40.215             36.860
 Vibration     1          0.593              1.986              7.055
 Vibration     2          0.599              1.967              4.060
 Vibration     3          0.602              1.954              3.602
 Vibration     4          0.613              1.921              2.908
 Vibration     5          0.631              1.860              2.277
 Vibration     6          0.640              1.834              2.096
 Vibration     7          0.653              1.793              1.866
 Vibration     8          0.663              1.761              1.724
 Vibration     9          0.687              1.690              1.467
 Vibration    10          0.723              1.588              1.194
 Vibration    11          0.747              1.520              1.053
 Vibration    12          0.780              1.433              0.902
 Vibration    13          0.792              1.404              0.857
 Vibration    14          0.810              1.359              0.793
 Vibration    15          0.833              1.302              0.720
 Vibration    16          0.904              1.142              0.546

 Normal termination of Gaussian 16 at Thu Nov  3 08:11:23 2022.
