 Gaussian 16, Revision A.03,
 Gaussian 16:  ES64L-G16RevA.03 25-Dec-2016

 ----------------------------------------------------------------------
 #p pop=(regular,nbo,savenbos) freq=noraman def2svp empiricaldispersion
 =gd3bj output=wfx pbe1pbe
 ----------------------------------------------------------------------

 --------
 25_lig_b
 --------
 Symbolic Z-matrix:
 Charge =  0 Multiplicity = 1

                         Standard orientation:
 ---------------------------------------------------------------------
 Center     Atomic      Atomic             Coordinates (Angstroms)
 Number     Number       Type             X           Y           Z
 ---------------------------------------------------------------------
      1          6           0        4.790806   -0.832885    0.701401
      2          6           0        4.409748    0.466812    1.018055
      3          6           0        3.154231    0.917552    0.615227
      4          6           0        2.345594    0.031456   -0.092650
      5          7           0        2.716039   -1.210900   -0.416136
      6          6           0        3.904253   -1.638100   -0.019456
      7          7           0        0.183712   -0.477792   -1.017429
      8          6           0        0.988472    0.384742   -0.530599
      9          8           0        0.554075    1.635196   -0.438061
     10          6           0       -0.821853    1.643976   -0.897655
     11          6           0       -1.063345    0.180841   -1.369017
     12          1           0       -1.229435    0.056910   -2.450960
     13          6           0       -2.215533   -0.307478   -0.539364
     14          6           0       -2.614879    0.662306    0.380435
     15          6           0       -3.648025    0.384182    1.272992
     16          6           0       -4.254251   -0.871535    1.231648
     17          6           0       -3.839601   -1.839581    0.312462
     18          6           0       -2.811203   -1.564414   -0.586559
     19          6           0       -1.808743    1.928137    0.243671
     20          1           0        5.762293   -1.226711    1.005758
     21          1           0        5.078635    1.122636    1.579550
     22          1           0        2.796641    1.922142    0.844963
     23          1           0        4.164874   -2.668003   -0.281004
     24          1           0       -3.976912    1.131936    1.999078
     25          1           0       -5.061501   -1.103083    1.930583
     26          1           0       -4.321423   -2.819568    0.301948
     27          1           0       -2.467172   -2.310822   -1.308418
     28          1           0       -1.254705    2.172649    1.164036
     29          1           0       -2.443780    2.798370    0.014126
     30          1           0       -0.872408    2.386744   -1.703757
 ---------------------------------------------------------------------

 SCF Done:  E(RPBE1PBE) =  -762.150818647     A.U. after   14 cycles

 The electronic state is 1-A.
 Alpha  occ. eigenvalues --  -19.24985 -14.38800 -14.35961 -10.31374 -10.29808
 Alpha  occ. eigenvalues --  -10.28330 -10.27390 -10.26594 -10.26310 -10.25485
 Alpha  occ. eigenvalues --  -10.25318 -10.24540 -10.24225 -10.23852 -10.23786
 Alpha  occ. eigenvalues --  -10.23684 -10.23641 -10.23612  -1.12255  -0.97491
 Alpha  occ. eigenvalues --   -0.92222  -0.88771  -0.83616  -0.82799  -0.79789
 Alpha  occ. eigenvalues --   -0.77094  -0.74153  -0.71487  -0.66750  -0.65744
 Alpha  occ. eigenvalues --   -0.63549  -0.60819  -0.59413  -0.58341  -0.54813
 Alpha  occ. eigenvalues --   -0.53335  -0.51377  -0.50631  -0.49568  -0.47718
 Alpha  occ. eigenvalues --   -0.46716  -0.45970  -0.45131  -0.44360  -0.43077
 Alpha  occ. eigenvalues --   -0.42576  -0.42383  -0.41842  -0.41019  -0.38927
 Alpha  occ. eigenvalues --   -0.38530  -0.36736  -0.36365  -0.35253  -0.34913
 Alpha  occ. eigenvalues --   -0.30986  -0.28970  -0.27878  -0.26382  -0.25939
 Alpha  occ. eigenvalues --   -0.25641  -0.24738
 Alpha virt. eigenvalues --   -0.04710  -0.02332  -0.00987   0.00087   0.06431
 Alpha virt. eigenvalues --    0.07372   0.07894   0.08096   0.09883   0.11208
 Alpha virt. eigenvalues --    0.11502   0.12659   0.12868   0.13660   0.14737

 Mulliken charges:
               1
     1  C   -0.053480
     2  C    0.030985
     3  C    0.004208
     4  C   -0.058288
     5  N   -0.121160
     6  C    0.058665
     7  N   -0.188972
     8  C    0.192269
     9  O   -0.332137
    10  C    0.076036
    11  C    0.033463
    12  H    0.050643
    13  C   -0.006462
    14  C   -0.127631
    15  C   -0.039717
    16  C   -0.011421
    17  C   -0.021770
    18  C   -0.001075
    19  C    0.159793
    20  H    0.033445
    21  H    0.034179
    22  H    0.033151
    23  H    0.039594
    24  H    0.002957
    25  H    0.019641
    26  H    0.020872
    27  H    0.015798
    28  H    0.055580
    29  H    0.053714
    30  H    0.047119
 Sum of Mulliken charges =  -0.00000

 Dipole moment (field-independent basis, Debye):
    X=              0.6202    Y=              2.1273    Z=              1.1856  Tot=              2.5131
 Quadrupole moment (field-independent basis, Debye-Ang):
   XX=            -85.3010   YY=            -97.9262   ZZ=           -100.6867
   XY=             -0.3609   XZ=              4.0830   YZ=             -0.0058

  Exact polarizability: 218.829   5.147 163.713   1.180  15.395 119.464
 Approx polarizability: 277.302  13.822 275.668   5.289  40.963 197.457

 Summary of Natural Population Analysis:

                                       Natural Population
                Natural  -----------------------------------------------
    Atom  No    Charge         Core      Valence    Rydberg      Total
 -----------------------------------------------------------------------
      C    1   -0.26341      1.99897     4.25061    0.01383     6.26341
      C    2   -0.19639      1.99896     4.18223    0.01520     6.19639
      C    3   -0.24021      1.99894     4.22631    0.01496     6.24021
      C    4    0.15107      1.99888     3.82405    0.02601     5.84893
      N    5   -0.44003      1.99926     5.42421    0.01657     7.44003
      C    6    0.06070      1.99905     3.91623    0.02403     5.93930
      N    7   -0.50781      1.99930     5.49200    0.01651     7.50781
      C    8    0.57436      1.99898     3.38237    0.04429     5.42564
      O    9   -0.57283      1.99966     6.56225    0.01092     8.57283
      C   10    0.11205      1.99890     3.86538    0.02367     5.88795
      C   11   -0.08490      1.99892     4.06162    0.02436     6.08490
      H   12    0.24914      0.00000     0.74727    0.00359     0.75086
      C   13   -0.04894      1.99880     4.03126    0.01888     6.04894
      C   14   -0.03778      1.99882     4.02203    0.01692     6.03778
      C   15   -0.22033      1.99887     4.20586    0.01560     6.22033
      C   16   -0.22349      1.99897     4.20942    0.01510     6.22349
      C   17   -0.22612      1.99896     4.21208    0.01508     6.22612
      C   18   -0.20218      1.99886     4.18690    0.01643     6.20218
      C   19   -0.48175      1.99907     4.46872    0.01396     6.48175
      H   20    0.23552      0.00000     0.76158    0.00290     0.76448
      H   21    0.23672      0.00000     0.76066    0.00262     0.76328
      H   22    0.24897      0.00000     0.74786    0.00316     0.75103
      H   23    0.21380      0.00000     0.78344    0.00276     0.78620
      H   24    0.23032      0.00000     0.76691    0.00277     0.76968
      H   25    0.23055      0.00000     0.76674    0.00270     0.76945
      H   26    0.23122      0.00000     0.76610    0.00268     0.76878
      H   27    0.24015      0.00000     0.75690    0.00294     0.75985
      H   28    0.25711      0.00000     0.73922    0.00367     0.74289
      H   29    0.24547      0.00000     0.75134    0.00319     0.75453
      H   30    0.22901      0.00000     0.76810    0.00289     0.77099
 =======================================================================
   * Total *   -0.00000     35.98215    87.63966    0.37819   124.00000

 ******    1 imaginary frequencies (negative Signs) ******

                      1                      2                      3
                      A                      A                      A
 Frequencies --    -41.2371                24.5826                52.2787
 Red. masses --      5.1223                 4.7016                 4.6911
 Frc consts  --      0.0051                 0.0017                 0.0076
 IR Inten    --      0.2804                 1.4935                 0.2997

                      4                      5                      6
                      A                      A                      A
 Frequencies --    106.9771               113.7251               174.6622
 Red. masses --      5.7079                 4.4057                 3.3356
 Frc consts  --      0.0385                 0.0336                 0.0600
 IR Inten    --      2.9296                 1.6512                 1.1619

                      7                      8                      9
                      A                      A                      A
 Frequencies --    216.1643               270.2091               308.5669
 Red. masses --      5.3238                 4.1864                 5.4900
 Frc consts  --      0.1466                 0.1801                 0.3080
 IR Inten    --      1.4704                 2.7244                 0.9950

                     10                     11                     12
                      A                      A                      A
 Frequencies --    399.2285               407.9630               418.7318
 Red. masses --      4.2430                 4.7586                 3.4890
 Frc consts  --      0.3984                 0.4666                 0.3604
 IR Inten    --      1.9162                 0.7499                 2.5892

                     13                     14                     15
                      A                      A                      A
 Frequencies --    449.0887               480.4051               493.1412
 Red. masses --      3.1259                 4.4596                 3.5270
 Frc consts  --      0.3714                 0.6064                 0.5054
 IR Inten    --      6.1141                 1.5439                 0.7705

                     16                     17                     18
                      A                      A                      A
 Frequencies --    529.3314               569.4390               615.7210
 Red. masses --      3.9714                 4.9939                 4.5747
 Frc consts  --      0.6556                 0.9541                 1.0218
 IR Inten    --      1.5722                 0.6765                 1.1708

                     19                     20                     21
                      A                      A                      A
 Frequencies --    629.0913               652.4472               703.1870
 Red. masses --      7.1246                 6.1170                 4.3993
 Frc consts  --      1.6613                 1.5342                 1.2817
 IR Inten    --      3.5059                 3.3739                31.2822

                     22                     23                     24
                      A                      A                      A
 Frequencies --    727.8115               735.8493               765.5758
 Red. masses --      3.2877                 3.4699                 1.5733
 Frc consts  --      1.0261                 1.1070                 0.5433
 IR Inten    --      6.5571                11.0709                16.8914

                     25                     26                     27
                      A                      A                      A
 Frequencies --    773.6209               795.3988               833.8749
 Red. masses --      1.4818                 4.1412                 3.1617
 Frc consts  --      0.5225                 1.5437                 1.2953
 IR Inten    --     42.1322                 0.9031                14.2338

                     28                     29                     30
                      A                      A                      A
 Frequencies --    849.7556               867.3567               880.7767
 Red. masses --      3.3620                 2.2299                 3.5385
 Frc consts  --      1.4303                 0.9884                 1.6173
 IR Inten    --      5.6498                 1.2621                15.2737

                     31                     32                     33
                      A                      A                      A
 Frequencies --    907.2970               924.0663               931.2114
 Red. masses --      1.9054                 1.3545                 2.4959
 Frc consts  --      0.9241                 0.6814                 1.2752
 IR Inten    --      9.0274                 1.0205                 1.0111

                     34                     35                     36
                      A                      A                      A
 Frequencies --    973.9538               984.5644               990.4766
 Red. masses --      2.4205                 2.3167                 1.4698
 Frc consts  --      1.3528                 1.3232                 0.8496
 IR Inten    --      1.9619                 2.8559                 0.2232

                     37                     38                     39
                      A                      A                      A
 Frequencies --   1018.1085              1022.0534              1029.5125
 Red. masses --      1.3236                 6.3854                 1.3461
 Frc consts  --      0.8083                 3.9300                 0.8406
 IR Inten    --      0.2746                 6.7412                 0.0664

                     40                     41                     42
                      A                      A                      A
 Frequencies --   1038.4025              1052.3799              1058.1304
 Red. masses --      3.2086                 2.5112                 1.9457
 Frc consts  --      2.0385                 1.6386                 1.2835
 IR Inten    --     47.4248                10.0975                 4.3073

                     43                     44                     45
                      A                      A                      A
 Frequencies --   1073.1075              1080.5362              1111.0628
 Red. masses --      2.0289                 2.6974                 1.4451
 Frc consts  --      1.3766                 1.8555                 1.0510
 IR Inten    --     10.1624                 3.7410                 7.3467

                     46                     47                     48
                      A                      A                      A
 Frequencies --   1122.7253              1159.1649              1167.4927
 Red. masses --      1.6996                 1.0933                 1.0967
 Frc consts  --      1.2622                 0.8655                 0.8807
 IR Inten    --      0.8801                 0.1952                 0.9310

                     49                     50                     51
                      A                      A                      A
 Frequencies --   1183.3487              1192.3498              1199.3839
 Red. masses --      1.2394                 2.5375                 1.8985
 Frc consts  --      1.0226                 2.1256                 1.6090
 IR Inten    --      3.6222                46.4210                 3.2428

                     52                     53                     54
                      A                      A                      A
 Frequencies --   1216.6859              1239.6254              1263.5279
 Red. masses --      1.7544                 1.5980                 1.5428
 Frc consts  --      1.5301                 1.4468                 1.4512
 IR Inten    --     34.8799                 5.2996                21.1785

                     55                     56                     57
                      A                      A                      A
 Frequencies --   1301.9912              1309.2267              1321.5531
 Red. masses --      1.7554                 1.4057                 1.6781
 Frc consts  --      1.7532                 1.4196                 1.7268
 IR Inten    --      0.5983                 9.7082                 9.2009

                     58                     59                     60
                      A                      A                      A
 Frequencies --   1332.2732              1354.4758              1379.2935
 Red. masses --      1.7918                 2.0368                 7.1808
 Frc consts  --      1.8738                 2.2016                 8.0489
 IR Inten    --      2.1386                 5.7430                 5.7367

                     61                     62                     63
                      A                      A                      A
 Frequencies --   1412.6572              1437.5570              1455.9405
 Red. masses --      5.5470                 1.1543                 2.6164
 Frc consts  --      6.5221                 1.4055                 3.2677
 IR Inten    --      4.5967                27.9063               118.7552

                     64                     65                     66
                      A                      A                      A
 Frequencies --   1479.2660              1508.6862              1533.3276
 Red. masses --      2.6474                 2.9785                 3.2216
 Frc consts  --      3.4131                 3.9943                 4.4626
 IR Inten    --      9.7064                 6.9486                 9.8064

                     67                     68                     69
                      A                      A                      A
 Frequencies --   1546.8776              1664.4771              1678.1512
 Red. masses --      4.5648                 6.9192                 7.4078
 Frc consts  --      6.4356                11.2944                12.2914
 IR Inten    --     25.8624                44.0572                 3.8834

                     70                     71                     72
                      A                      A                      A
 Frequencies --   1679.7194              1698.8587              1747.6423
 Red. masses --      7.3231                 7.3927                11.3020
 Frc consts  --     12.1736                12.5709                20.3381
 IR Inten    --     40.1650                 1.1554                70.1262

                     73                     74                     75
                      A                      A                      A
 Frequencies --   3075.4580              3090.8059              3127.3267
 Red. masses --      1.0628                 1.0880                 1.1052
 Frc consts  --      5.9228                 6.1239                 6.3683
 IR Inten    --     12.8678                15.4011                 2.1778

                     76                     77                     78
                      A                      A                      A
 Frequencies --   3147.2613              3199.1721              3200.2650
 Red. masses --      1.0912                 1.0910                 1.0873
 Frc consts  --      6.3680                 6.5790                 6.5613
 IR Inten    --     27.4038                15.1989                 1.3299

                     79                     80                     81
                      A                      A                      A
 Frequencies --   3205.2135              3216.5974              3218.2160
 Red. masses --      1.0914                 1.0953                 1.0903
 Frc consts  --      6.6059                 6.6767                 6.6531
 IR Inten    --      0.9148                11.4649                 5.3868

                     82                     83                     84
                      A                      A                      A
 Frequencies --   3229.0774              3234.9555              3244.4280
 Red. masses --      1.0996                 1.0972                 1.0982
 Frc consts  --      6.7550                 6.7652                 6.8109
 IR Inten    --     14.0190                 9.6115                 0.8041

 - Thermochemistry -
 -------------------
 Temperature   298.150 Kelvin.  Pressure   1.00000 Atm.
 Atom     1 has atomic number  6 and mass  12.00000

 Molecular mass:   236.09496 amu.
 Principal axes and moments of inertia in atomic units:
                           1         2         3
     Eigenvalues --  1735.012447716.968468369.40474
           X            1.00000   0.00006   0.00116
           Y           -0.00008   0.99981   0.01952
           Z           -0.00116  -0.01952   0.99981
 This molecule is an asymmetric top.
 Rotational symmetry number  1.
 Warning -- assumption of classical behavior for rotation
           may cause significant error
 Rotational temperatures (Kelvin)      0.04992     0.01122     0.01035
 Rotational constants (GHZ):           1.04019     0.23387     0.21564
    1 imaginary frequencies ignored.
 Zero-point vibrational energy     632913.5 (Joules/Mol)
                                  151.26996 (Kcal/Mol)
 Warning -- explicit consideration of  17 degrees of freedom as
           vibrations may cause significant error
 Vibrational temperatures:     35.37    75.22   153.92   163.63   251.30
          (Kelvin)            311.01   388.77   443.96   574.40   586.97
                              602.46   646.14   691.20   709.52   761.59
                              819.30   885.89   905.12   938.73  1011.73
                             1047.16  1058.72  1101.49  1113.07  1144.40
                             1199.76  1222.61  1247.93  1267.24  1305.40
                             1329.53  1339.81  1401.30  1416.57  1425.07
                             1464.83  1470.51  1481.24  1494.03  1514.14
                             1522.41  1543.96  1554.65  1598.57  1615.35
                             1667.78  1679.76  1702.57  1715.53  1725.65
                             1750.54  1783.54  1817.93  1873.27  1883.69
                             1901.42  1916.84  1948.79  1984.50  2032.50
                             2068.32  2094.77  2128.33  2170.66  2206.12
                             2225.61  2394.81  2414.49  2416.74  2444.28
                             2514.47  4424.90  4446.98  4499.53  4528.21
                             4602.90  4604.47  4611.59  4627.97  4630.30
                             4645.92  4654.38  4668.01

 Zero-point correction=                           0.241064 (Hartree/Particle)
 Thermal correction to Energy=                    0.253122
 Thermal correction to Enthalpy=                  0.254066
 Thermal correction to Gibbs Free Energy=         0.201019
 Sum of electronic and zero-point Energies=           -761.909755
 Sum of electronic and thermal Energies=              -761.897697
 Sum of electronic and thermal Enthalpies=            -761.896753
 Sum of electronic and thermal Free Energies=         -761.949800

                     E (Thermal)             CV                S
                      KCal/Mol        Cal/Mol-Kelvin    Cal/Mol-Kelvin
 Total                  158.836             49.957            111.647
 Electronic               0.000              0.000              0.000
 Translational            0.889              2.981             42.279
 Rotational               0.889              2.981             33.082
 Vibrational            157.059             43.996             36.286
 Vibration     1          0.593              1.985              6.225
 Vibration     2          0.596              1.977              4.729
 Vibration     3          0.606              1.944              3.323
 Vibration     4          0.607              1.938              3.204
 Vibration     5          0.627              1.874              2.385
 Vibration     6          0.645              1.816              1.991
 Vibration     7          0.674              1.728              1.595
 Vibration     8          0.698              1.657              1.370
 Vibration     9          0.765              1.472              0.965
 Vibration    10          0.773              1.453              0.934
 Vibration    11          0.782              1.430              0.896
 Vibration    12          0.808              1.363              0.799
 Vibration    13          0.837              1.294              0.709
 Vibration    14          0.849              1.265              0.675
 Vibration    15          0.884              1.185              0.589
 Vibration    16          0.925              1.097              0.505
 Vibration    17          0.975              0.999              0.423

 Normal termination of Gaussian 16 at Thu Nov  3 08:14:51 2022.
