 Gaussian 16, Revision A.03,
 Gaussian 16:  ES64L-G16RevA.03 25-Dec-2016

 ----------------------------------------------------------------------
 #p pop=(regular,nbo,savenbos) freq=noraman def2svp empiricaldispersion
 =gd3bj output=wfx pbe1pbe
 ----------------------------------------------------------------------

 --------
 26_lig_b
 --------
 Symbolic Z-matrix:
 Charge =  0 Multiplicity = 1

                         Standard orientation:
 ---------------------------------------------------------------------
 Center     Atomic      Atomic             Coordinates (Angstroms)
 Number     Number       Type             X           Y           Z
 ---------------------------------------------------------------------
      1          6           0       -4.228704   -1.282377    0.953226
      2          6           0       -3.971864   -1.499590   -0.400121
      3          6           0       -2.995408   -0.756637   -1.058493
      4          6           0       -2.267219    0.217408   -0.366034
      5          6           0       -2.514690    0.417611    0.995244
      6          6           0       -3.495063   -0.325264    1.651151
      7          6           0       -1.170473    0.958365   -1.103653
      8          1           0       -1.451793    1.069359   -2.160727
      9          6           0       -0.689523    2.282794   -0.481421
     10          8           0        0.553927    1.940884    0.182450
     11          6           0        0.895697    0.758956   -0.307632
     12          7           0        0.055790    0.159906   -1.060145
     13          7           0        2.347423   -1.019439   -0.692883
     14          6           0        2.189841    0.130350   -0.020676
     15          6           0        3.151620    0.638178    0.842351
     16          6           0        4.323299   -0.103162    1.008431
     17          6           0        4.478357   -1.298298    0.314109
     18          6           0        3.456947   -1.727605   -0.538846
     19          1           0       -4.997311   -1.864705    1.466929
     20          1           0       -4.533520   -2.258112   -0.950221
     21          1           0       -2.758746   -0.947865   -2.109701
     22          1           0       -1.938732    1.151909    1.564906
     23          1           0       -3.683329   -0.156232    2.714033
     24          1           0       -1.371150    2.713430    0.260648
     25          1           0       -0.454573    3.040132   -1.243733
     26          1           0        2.978914    1.580792    1.363528
     27          1           0        5.108248    0.254358    1.678595
     28          1           0        5.381251   -1.901491    0.423498
     29          1           0        3.489931   -2.656284   -1.121959
 ---------------------------------------------------------------------

 SCF Done:  E(RPBE1PBE) =  -724.089335072     A.U. after   14 cycles

 The electronic state is 1-A.
 Alpha  occ. eigenvalues --  -19.25318 -14.38450 -14.35976 -10.31321 -10.29548
 Alpha  occ. eigenvalues --  -10.28241 -10.27363 -10.26956 -10.26305 -10.25530
 Alpha  occ. eigenvalues --  -10.25313 -10.24402 -10.23842 -10.23792 -10.23700
 Alpha  occ. eigenvalues --  -10.23638 -10.23541  -1.12502  -0.97248  -0.92024
 Alpha  occ. eigenvalues --   -0.87388  -0.82635  -0.81984  -0.78011  -0.76109
 Alpha  occ. eigenvalues --   -0.74709  -0.67333  -0.66409  -0.64443  -0.61990
 Alpha  occ. eigenvalues --   -0.59607  -0.58934  -0.55025  -0.53640  -0.51281
 Alpha  occ. eigenvalues --   -0.50732  -0.49955  -0.47675  -0.46651  -0.46463
 Alpha  occ. eigenvalues --   -0.45389  -0.43752  -0.43530  -0.43008  -0.42130
 Alpha  occ. eigenvalues --   -0.41523  -0.38931  -0.38701  -0.37975  -0.37315
 Alpha  occ. eigenvalues --   -0.36017  -0.34907  -0.30802  -0.29061  -0.28263
 Alpha  occ. eigenvalues --   -0.26553  -0.26174  -0.25168  -0.24725
 Alpha virt. eigenvalues --   -0.04742  -0.02293  -0.00344  -0.00324   0.06377
 Alpha virt. eigenvalues --    0.07248   0.07676   0.08744   0.09736   0.11246
 Alpha virt. eigenvalues --    0.11912   0.12814   0.13464   0.13995   0.14485

 Mulliken charges:
               1
     1  C   -0.011546
     2  C   -0.019647
     3  C   -0.002827
     4  C    0.015139
     5  C   -0.039877
     6  C   -0.019249
     7  C   -0.049156
     8  H    0.039160
     9  C    0.245725
    10  O   -0.342686
    11  C    0.180673
    12  N   -0.199672
    13  N   -0.129422
    14  C   -0.050004
    15  C    0.003645
    16  C    0.028018
    17  C   -0.048797
    18  C    0.055822
    19  H    0.021184
    20  H    0.021477
    21  H    0.018471
    22  H    0.019703
    23  H    0.018702
    24  H    0.048727
    25  H    0.053780
    26  H    0.030866
    27  H    0.034869
    28  H    0.033047
    29  H    0.043874
 Sum of Mulliken charges =  -0.00000

 Dipole moment (field-independent basis, Debye):
    X=              0.9127    Y=              1.3365    Z=              1.2343  Tot=              2.0354
 Quadrupole moment (field-independent basis, Debye-Ang):
   XX=            -81.5580   YY=            -92.4926   ZZ=            -94.2884
   XY=             -1.1972   XZ=              4.0310   YZ=             -0.4931

  Exact polarizability: 205.479   6.353 140.805   9.258  15.613 132.466
 Approx polarizability: 262.715  18.359 224.186  23.509  41.031 227.727

 Summary of Natural Population Analysis:

                                       Natural Population
                Natural  -----------------------------------------------
    Atom  No    Charge         Core      Valence    Rydberg      Total
 -----------------------------------------------------------------------
      C    1   -0.23152      1.99895     4.21751    0.01506     6.23152
      C    2   -0.21958      1.99895     4.20548    0.01514     6.21958
      C    3   -0.20916      1.99888     4.19409    0.01618     6.20916
      C    4   -0.04996      1.99886     4.03143    0.01967     6.04996
      C    5   -0.23267      1.99889     4.21894    0.01485     6.23267
      C    6   -0.21879      1.99895     4.20441    0.01543     6.21879
      C    7   -0.10027      1.99896     4.07665    0.02465     6.10027
      H    8    0.24839      0.00000     0.74828    0.00333     0.75161
      C    9   -0.08217      1.99906     4.06357    0.01953     6.08217
      O   10   -0.56341      1.99966     6.55330    0.01045     8.56341
      C   11    0.57016      1.99898     3.38704    0.04383     5.42984
      N   12   -0.50253      1.99932     5.48685    0.01636     7.50253
      N   13   -0.43893      1.99926     5.42319    0.01648     7.43893
      C   14    0.14776      1.99888     3.82763    0.02574     5.85224
      C   15   -0.23932      1.99894     4.22550    0.01489     6.23932
      C   16   -0.19797      1.99897     4.18380    0.01520     6.19797
      C   17   -0.26332      1.99897     4.25064    0.01371     6.26332
      C   18    0.05976      1.99905     3.91715    0.02405     5.94024
      H   19    0.23048      0.00000     0.76681    0.00271     0.76952
      H   20    0.23099      0.00000     0.76627    0.00274     0.76901
      H   21    0.23472      0.00000     0.76235    0.00293     0.76528
      H   22    0.22821      0.00000     0.76830    0.00349     0.77179
      H   23    0.23030      0.00000     0.76696    0.00275     0.76970
      H   24    0.21713      0.00000     0.77979    0.00308     0.78287
      H   25    0.21495      0.00000     0.78198    0.00307     0.78505
      H   26    0.24689      0.00000     0.75005    0.00306     0.75311
      H   27    0.23718      0.00000     0.76023    0.00259     0.76282
      H   28    0.23478      0.00000     0.76223    0.00299     0.76522
      H   29    0.21789      0.00000     0.77944    0.00267     0.78211
 =======================================================================
   * Total *    0.00000     33.98351    83.65987    0.35662   118.00000

 ******    1 imaginary frequencies (negative Signs) ******

                      1                      2                      3
                      A                      A                      A
 Frequencies --    -28.3328                19.4237                31.3595
 Red. masses --      5.8860                 4.6867                 4.0901
 Frc consts  --      0.0028                 0.0010                 0.0024
 IR Inten    --      0.5104                 1.9014                 0.0655

                      4                      5                      6
                      A                      A                      A
 Frequencies --     82.6132               114.9078               150.6593
 Red. masses --      6.5988                 4.5884                 5.0323
 Frc consts  --      0.0265                 0.0357                 0.0673
 IR Inten    --      0.4342                 2.7582                 2.0966

                      7                      8                      9
                      A                      A                      A
 Frequencies --    212.1906               253.6964               287.0132
 Red. masses --      4.8602                 2.7031                 5.6941
 Frc consts  --      0.1289                 0.1025                 0.2764
 IR Inten    --      0.7238                 1.7842                 0.9416

                     10                     11                     12
                      A                      A                      A
 Frequencies --    366.4735               386.7195               416.8436
 Red. masses --      3.8876                 5.9092                 2.8626
 Frc consts  --      0.3076                 0.5207                 0.2931
 IR Inten    --      1.0899                 0.5734                 0.0744

                     13                     14                     15
                      A                      A                      A
 Frequencies --    417.2390               451.1880               486.6329
 Red. masses --      3.2539                 5.4645                 3.8071
 Frc consts  --      0.3337                 0.6554                 0.5312
 IR Inten    --      2.1829                 5.1350                 2.2551

                     16                     17                     18
                      A                      A                      A
 Frequencies --    541.0786               600.6513               629.3903
 Red. masses --      3.4101                 3.7916                 6.9390
 Frc consts  --      0.5882                 0.8060                 1.6195
 IR Inten    --      5.3912                 4.4216                 3.1508

                     19                     20                     21
                      A                      A                      A
 Frequencies --    630.6817               700.0170               722.3216
 Red. masses --      6.4814                 4.4507                 1.5345
 Frc consts  --      1.5189                 1.2850                 0.4717
 IR Inten    --      1.0518                29.4248                42.4575

                     22                     23                     24
                      A                      A                      A
 Frequencies --    732.7191               764.2134               769.8530
 Red. masses --      6.0930                 1.5585                 2.6540
 Frc consts  --      1.9273                 0.5363                 0.9268
 IR Inten    --      5.0386                20.6385                23.1519

                     25                     26                     27
                      A                      A                      A
 Frequencies --    790.7688               825.2677               838.4711
 Red. masses --      3.4114                 3.7006                 3.5875
 Frc consts  --      1.2568                 1.4850                 1.4860
 IR Inten    --      5.5173                11.0067                 8.3071

                     28                     29                     30
                      A                      A                      A
 Frequencies --    862.7934               925.9026               938.0657
 Red. masses --      1.2532                 1.3357                 1.5492
 Frc consts  --      0.5497                 0.6747                 0.8032
 IR Inten    --      0.2320                 0.6095                 0.7313

                     31                     32                     33
                      A                      A                      A
 Frequencies --    961.7105               982.0011               990.5459
 Red. masses --      6.4215                 4.1881                 1.4592
 Frc consts  --      3.4993                 2.3795                 0.8436
 IR Inten    --     29.5777                23.7097                 0.3516

                     34                     35                     36
                      A                      A                      A
 Frequencies --   1000.3501              1009.0590              1017.7621
 Red. masses --      1.3870                 2.7775                 4.9112
 Frc consts  --      0.8178                 1.6663                 2.9973
 IR Inten    --      0.3158                19.9065                 0.3348

                     37                     38                     39
                      A                      A                      A
 Frequencies --   1018.0133              1024.3664              1028.1668
 Red. masses --      6.2446                 1.3804                 1.3407
 Frc consts  --      3.8129                 0.8534                 0.8350
 IR Inten    --      7.8459                 0.1649                 0.0038

                     40                     41                     42
                      A                      A                      A
 Frequencies --   1034.2255              1059.8737              1065.5351
 Red. masses --      2.5106                 3.2576                 2.0370
 Frc consts  --      1.5822                 2.1561                 1.3626
 IR Inten    --      2.6414                 3.2144                 4.5863

                     43                     44                     45
                      A                      A                      A
 Frequencies --   1070.4816              1106.6211              1116.0634
 Red. masses --      2.0812                 1.4780                 1.4306
 Frc consts  --      1.4051                 1.0664                 1.0499
 IR Inten    --      7.6306                 8.2150                 7.4303

                     46                     47                     48
                      A                      A                      A
 Frequencies --   1159.0982              1170.4526              1187.7078
 Red. masses --      1.0969                 1.0704                 2.1178
 Frc consts  --      0.8683                 0.8640                 1.7602
 IR Inten    --      0.2131                 0.0177                41.9972

                     49                     50                     51
                      A                      A                      A
 Frequencies --   1194.6407              1218.3743              1234.0344
 Red. masses --      1.1351                 1.6157                 1.5017
 Frc consts  --      0.9545                 1.4131                 1.3474
 IR Inten    --      2.0649                23.0765                 3.0261

                     52                     53                     54
                      A                      A                      A
 Frequencies --   1250.7016              1310.6921              1322.8693
 Red. masses --      1.3623                 1.3864                 1.6227
 Frc consts  --      1.2556                 1.4033                 1.6731
 IR Inten    --     17.0190                 3.8585                 8.8780

                     55                     56                     57
                      A                      A                      A
 Frequencies --   1334.0056              1367.5648              1375.0861
 Red. masses --      1.5452                 2.0267                 4.2139
 Frc consts  --      1.6201                 2.2332                 4.6946
 IR Inten    --      5.4517                 5.5545                 6.3137

                     58                     59                     60
                      A                      A                      A
 Frequencies --   1404.6181              1457.3679              1476.4975
 Red. masses --      5.5785                 1.9523                 2.5936
 Frc consts  --      6.4846                 2.4431                 3.3314
 IR Inten    --      1.1306                81.5934                15.5991

                     61                     62                     63
                      A                      A                      A
 Frequencies --   1487.0391              1496.0404              1538.7723
 Red. masses --      1.4903                 2.0715                 2.6033
 Frc consts  --      1.9417                 2.7316                 3.6318
 IR Inten    --     32.0420                21.3684                10.9892

                     64                     65                     66
                      A                      A                      A
 Frequencies --   1553.0261              1662.4987              1671.8516
 Red. masses --      4.7510                 7.1345                 6.4387
 Frc consts  --      6.7514                11.6182                10.6033
 IR Inten    --     38.9799                28.3092                 4.3898

                     67                     68                     69
                      A                      A                      A
 Frequencies --   1676.7816              1691.8811              1743.8682
 Red. masses --      7.1200                 6.4331                10.8511
 Frc consts  --     11.7946                10.8495                19.4425
 IR Inten    --     69.6172                 3.2851                71.5474

                     70                     71                     72
                      A                      A                      A
 Frequencies --   3098.3959              3111.0167              3175.6768
 Red. masses --      1.0703                 1.0828                 1.0928
 Frc consts  --      6.0536                 6.1743                 6.4932
 IR Inten    --     18.7758                30.3019                15.5162

                     73                     74                     75
                      A                      A                      A
 Frequencies --   3185.8769              3195.0355              3199.3403
 Red. masses --      1.1074                 1.0885                 1.0885
 Frc consts  --      6.6226                 6.5471                 6.5646
 IR Inten    --     12.6943                 2.7389                 1.3594

                     76                     77                     78
                      A                      A                      A
 Frequencies --   3209.3601              3217.1980              3219.4651
 Red. masses --      1.0914                 1.0896                 1.0961
 Frc consts  --      6.6231                 6.6445                 6.6938
 IR Inten    --      2.7279                 3.5854                14.6367

                     79                     80                     81
                      A                      A                      A
 Frequencies --   3229.0274              3234.7170              3242.5309
 Red. masses --      1.1007                 1.0961                 1.0985
 Frc consts  --      6.7619                 6.7572                 6.8049
 IR Inten    --     11.2692                 8.8598                 1.2713

 - Thermochemistry -
 -------------------
 Temperature   298.150 Kelvin.  Pressure   1.00000 Atm.
 Atom     1 has atomic number  6 and mass  12.00000

 Molecular mass:   224.09496 amu.
 Principal axes and moments of inertia in atomic units:
                           1         2         3
     Eigenvalues --  1735.079167198.795747724.76897
           X            1.00000   0.00021   0.00242
           Y           -0.00024   0.99989   0.01457
           Z           -0.00241  -0.01457   0.99989
 This molecule is an asymmetric top.
 Rotational symmetry number  1.
 Warning -- assumption of classical behavior for rotation
           may cause significant error
 Rotational temperatures (Kelvin)      0.04992     0.01203     0.01121
 Rotational constants (GHZ):           1.04015     0.25070     0.23363
    1 imaginary frequencies ignored.
 Zero-point vibrational energy     614504.0 (Joules/Mol)
                                  146.86997 (Kcal/Mol)
 Warning -- explicit consideration of  16 degrees of freedom as
           vibrations may cause significant error
 Vibrational temperatures:     27.95    45.12   118.86   165.33   216.77
          (Kelvin)            305.30   365.01   412.95   527.27   556.40
                              599.74   600.31   649.16   700.16   778.49
                              864.20   905.55   907.41  1007.17  1039.26
                             1054.22  1099.53  1107.65  1137.74  1187.38
                             1206.37  1241.37  1332.17  1349.67  1383.69
                             1412.88  1425.17  1439.28  1451.81  1464.33
                             1464.69  1473.83  1479.30  1488.02  1524.92
                             1533.07  1540.18  1592.18  1605.77  1667.68
                             1684.02  1708.85  1718.82  1752.97  1775.50
                             1799.48  1885.79  1903.31  1919.34  1967.62
                             1978.44  2020.93  2096.83  2124.35  2139.52
                             2152.47  2213.95  2234.46  2391.96  2405.42
                             2412.51  2434.24  2509.04  4457.90  4476.06
                             4569.09  4583.77  4596.94  4603.14  4617.55
                             4628.83  4632.09  4645.85  4654.04  4665.28

 Zero-point correction=                           0.234052 (Hartree/Particle)
 Thermal correction to Energy=                    0.246208
 Thermal correction to Enthalpy=                  0.247152
 Thermal correction to Gibbs Free Energy=         0.193138
 Sum of electronic and zero-point Energies=           -723.855283
 Sum of electronic and thermal Energies=              -723.843127
 Sum of electronic and thermal Enthalpies=            -723.842183
 Sum of electronic and thermal Free Energies=         -723.896197

                     E (Thermal)             CV                S
                      KCal/Mol        Cal/Mol-Kelvin    Cal/Mol-Kelvin
 Total                  154.498             48.813            113.682
 Electronic               0.000              0.000              0.000
 Translational            0.889              2.981             42.123
 Rotational               0.889              2.981             32.934
 Vibrational            152.720             42.852             38.625
 Vibration     1          0.593              1.986              6.692
 Vibration     2          0.594              1.983              5.742
 Vibration     3          0.600              1.961              3.828
 Vibration     4          0.608              1.937              3.184
 Vibration     5          0.618              1.902              2.664
 Vibration     6          0.643              1.822              2.025
 Vibration     7          0.665              1.757              1.705
 Vibration     8          0.684              1.698              1.492
 Vibration     9          0.739              1.541              1.095
 Vibration    10          0.755              1.499              1.013
 Vibration    11          0.780              1.434              0.903
 Vibration    12          0.780              1.433              0.901
 Vibration    13          0.810              1.358              0.792
 Vibration    14          0.843              1.280              0.692
 Vibration    15          0.896              1.159              0.563
 Vibration    16          0.959              1.030              0.449

 Normal termination of Gaussian 16 at Thu Nov  3 08:13:29 2022.
