 Gaussian 16, Revision A.03,
 Gaussian 16:  ES64L-G16RevA.03 25-Dec-2016

 ----------------------------------------------------------------------
 #p pop=(regular,nbo,savenbos) freq=noraman def2svp empiricaldispersion
 =gd3bj output=wfx pbe1pbe
 ----------------------------------------------------------------------

 --------
 27_lig_b
 --------
 Symbolic Z-matrix:
 Charge =  0 Multiplicity = 1

                         Standard orientation:
 ---------------------------------------------------------------------
 Center     Atomic      Atomic             Coordinates (Angstroms)
 Number     Number       Type             X           Y           Z
 ---------------------------------------------------------------------
      1          6           0        0.799675    2.839982   -0.983321
      2          6           0       -0.000031    1.963200    0.000068
      3          6           0        0.984868    1.131138    0.774704
      4          7           0        1.129924   -0.135625    0.797416
      5          6           0        2.361396   -0.441945    1.551590
      6          1           0        2.121559   -1.255683    2.250082
      7          6           0        2.625634    0.889434    2.257911
      8          8           0        1.851704    1.841042    1.500798
      9          6           0        3.414070   -0.904424    0.567111
     10          6           0        4.245212    0.003827   -0.098174
     11          6           0        5.155463   -0.441374   -1.054399
     12          6           0        5.235611   -1.798744   -1.362167
     13          6           0        4.399903   -2.705914   -0.713202
     14          6           0        3.492439   -2.264183    0.247129
     15          7           0       -1.129978   -0.135476   -0.797693
     16          6           0       -0.985010    1.131291   -0.774633
     17          8           0       -1.851980    1.841337   -1.500419
     18          6           0       -2.625920    0.889875   -2.257739
     19          6           0       -2.361545   -0.441655   -1.551768
     20          1           0       -2.121796   -1.255228   -2.250490
     21          6           0       -3.414075   -0.904377   -0.567238
     22          6           0       -3.492280   -2.264188   -0.247450
     23          6           0       -4.399580   -2.706157    0.712927
     24          6           0       -5.235300   -1.799166    1.362129
     25          6           0       -5.155316   -0.441747    1.054546
     26          6           0       -4.245229    0.003692    0.098276
     27          6           0       -0.799626    2.840047    0.983480
     28          1           0        1.386460    2.215687   -1.673228
     29          1           0        1.487055    3.489764   -0.426224
     30          1           0        0.109100    3.461313   -1.568218
     31          1           0        3.674422    1.208369    2.251422
     32          1           0        2.245801    0.897395    3.290684
     33          1           0        4.184678    1.073926    0.120095
     34          1           0        5.803259    0.276263   -1.563638
     35          1           0        5.947222   -2.148274   -2.113983
     36          1           0        4.447097   -3.769110   -0.959018
     37          1           0        2.811046   -2.966348    0.736816
     38          1           0       -2.246137    0.898125   -3.290531
     39          1           0       -3.674715    1.208750   -2.251098
     40          1           0       -2.810894   -2.966233   -0.737335
     41          1           0       -4.446637   -3.769401    0.958586
     42          1           0       -5.946775   -2.148876    2.113978
     43          1           0       -5.803125    0.275757    1.563965
     44          1           0       -4.184823    1.073824   -0.119825
     45          1           0       -0.108972    3.461256    1.568400
     46          1           0       -1.386478    2.215793    1.673373
     47          1           0       -1.486917    3.489926    0.426412
 ---------------------------------------------------------------------

 SCF Done:  E(RPBE1PBE) =  -1071.44842879     A.U. after   15 cycles

 The electronic state is 1-A.
 Alpha  occ. eigenvalues --  -19.24519 -19.24513 -14.35426 -14.35422 -10.31114
 Alpha  occ. eigenvalues --  -10.31113 -10.29005 -10.29004 -10.27145 -10.26550
 Alpha  occ. eigenvalues --  -10.26549 -10.24200 -10.24200 -10.23717 -10.23717
 Alpha  occ. eigenvalues --  -10.23661 -10.23660 -10.23594 -10.23594 -10.23538
 Alpha  occ. eigenvalues --  -10.23537 -10.23419 -10.23419 -10.23264 -10.23263
 Alpha  occ. eigenvalues --   -1.11926  -1.11708  -0.91739  -0.90949  -0.87594
 Alpha  occ. eigenvalues --   -0.87041  -0.85593  -0.79732  -0.78442  -0.75986
 Alpha  occ. eigenvalues --   -0.75972  -0.74960  -0.73894  -0.70720  -0.66487
 Alpha  occ. eigenvalues --   -0.65958  -0.64415  -0.62026  -0.61843  -0.60245
 Alpha  occ. eigenvalues --   -0.59541  -0.59002  -0.54940  -0.53939  -0.53381
 Alpha  occ. eigenvalues --   -0.52147  -0.50666  -0.50273  -0.48699  -0.47470
 Alpha  occ. eigenvalues --   -0.46686  -0.46485  -0.46372  -0.45762  -0.44944
 Alpha  occ. eigenvalues --   -0.44127  -0.44099  -0.43872  -0.43054  -0.42939
 Alpha  occ. eigenvalues --   -0.42280  -0.41858  -0.40795  -0.38375  -0.38356
 Alpha  occ. eigenvalues --   -0.37980  -0.37505  -0.37304  -0.37014  -0.36560
 Alpha  occ. eigenvalues --   -0.35937  -0.35738  -0.35333  -0.34936  -0.34675
 Alpha  occ. eigenvalues --   -0.34428  -0.28487  -0.26515  -0.26426  -0.26334
 Alpha  occ. eigenvalues --   -0.26009  -0.25224  -0.24739  -0.24043
 Alpha virt. eigenvalues --   -0.00756  -0.00716  -0.00234  -0.00211   0.03911
 Alpha virt. eigenvalues --    0.03985   0.06502   0.07450   0.08387   0.08859
 Alpha virt. eigenvalues --    0.09230   0.09724   0.10671   0.12292   0.12393

 Mulliken charges:
               1
     1  C    0.010036
     2  C   -0.324232
     3  C    0.182781
     4  N   -0.190560
     5  C   -0.049313
     6  H    0.033835
     7  C    0.249658
     8  O   -0.354852
     9  C    0.017660
    10  C   -0.042658
    11  C   -0.019289
    12  C   -0.012112
    13  C   -0.021134
    14  C   -0.003326
    15  N   -0.190562
    16  C    0.182787
    17  O   -0.354857
    18  C    0.249664
    19  C   -0.049323
    20  H    0.033839
    21  C    0.017662
    22  C   -0.003326
    23  C   -0.021140
    24  C   -0.012107
    25  C   -0.019292
    26  C   -0.042654
    27  C    0.010044
    28  H    0.055203
    29  H    0.056463
    30  H    0.058554
    31  H    0.046786
    32  H    0.048673
    33  H    0.021180
    34  H    0.017757
    35  H    0.020237
    36  H    0.020078
    37  H    0.016459
    38  H    0.048675
    39  H    0.046785
    40  H    0.016463
    41  H    0.020080
    42  H    0.020233
    43  H    0.017758
    44  H    0.021176
    45  H    0.058554
    46  H    0.055194
    47  H    0.056463
 Sum of Mulliken charges =  -0.00000

 Dipole moment (field-independent basis, Debye):
    X=             -0.0000    Y=              0.8187    Z=              0.0001  Tot=              0.8187
 Quadrupole moment (field-independent basis, Debye-Ang):
   XX=           -137.0437   YY=           -138.3376   ZZ=           -136.7420
   XY=             -0.0001   XZ=             -0.8542   YZ=             -0.0014

  Exact polarizability: 240.607   0.000 246.260 -40.050   0.001 193.112
 Approx polarizability: 308.630  -0.000 403.842 -66.341   0.007 291.292

 Summary of Natural Population Analysis:

                                       Natural Population
                Natural  -----------------------------------------------
    Atom  No    Charge         Core      Valence    Rydberg      Total
 -----------------------------------------------------------------------
      C    1   -0.63778      1.99924     4.62540    0.01314     6.63778
      C    2   -0.17045      1.99879     4.15446    0.01719     6.17045
      C    3    0.61951      1.99901     3.33104    0.05044     5.38049
      N    4   -0.51566      1.99927     5.49974    0.01665     7.51566
      C    5   -0.09860      1.99894     4.07447    0.02519     6.09860
      H    6    0.24814      0.00000     0.74866    0.00319     0.75186
      C    7   -0.08229      1.99905     4.06318    0.02007     6.08229
      O    8   -0.58198      1.99965     6.57164    0.01069     8.58198
      C    9   -0.04822      1.99886     4.02942    0.01994     6.04822
      C   10   -0.23395      1.99889     4.22017    0.01490     6.23395
      C   11   -0.22008      1.99895     4.20567    0.01546     6.22008
      C   12   -0.23261      1.99895     4.21859    0.01507     6.23261
      C   13   -0.22024      1.99895     4.20615    0.01514     6.22024
      C   14   -0.20905      1.99888     4.19398    0.01618     6.20905
      N   15   -0.51566      1.99927     5.49975    0.01665     7.51566
      C   16    0.61951      1.99901     3.33104    0.05044     5.38049
      O   17   -0.58199      1.99965     6.57164    0.01069     8.58199
      C   18   -0.08229      1.99905     4.06318    0.02007     6.08229
      C   19   -0.09860      1.99894     4.07447    0.02519     6.09860
      H   20    0.24814      0.00000     0.74866    0.00319     0.75186
      C   21   -0.04822      1.99886     4.02942    0.01994     6.04822
      C   22   -0.20905      1.99888     4.19398    0.01618     6.20905
      C   23   -0.22024      1.99895     4.20615    0.01514     6.22024
      C   24   -0.23261      1.99895     4.21859    0.01507     6.23261
      C   25   -0.22008      1.99895     4.20567    0.01546     6.22008
      C   26   -0.23395      1.99889     4.22017    0.01490     6.23395
      C   27   -0.63778      1.99924     4.62540    0.01315     6.63778
      H   28    0.23627      0.00000     0.76127    0.00246     0.76373
      H   29    0.23764      0.00000     0.75970    0.00266     0.76236
      H   30    0.23902      0.00000     0.75825    0.00273     0.76098
      H   31    0.21801      0.00000     0.77890    0.00309     0.78199
      H   32    0.21344      0.00000     0.78341    0.00315     0.78656
      H   33    0.22975      0.00000     0.76653    0.00372     0.77025
      H   34    0.22985      0.00000     0.76740    0.00275     0.77015
      H   35    0.22994      0.00000     0.76735    0.00271     0.77006
      H   36    0.23028      0.00000     0.76697    0.00275     0.76972
      H   37    0.23384      0.00000     0.76328    0.00288     0.76616
      H   38    0.21344      0.00000     0.78340    0.00315     0.78656
      H   39    0.21801      0.00000     0.77890    0.00309     0.78199
      H   40    0.23384      0.00000     0.76328    0.00288     0.76616
      H   41    0.23028      0.00000     0.76697    0.00275     0.76972
      H   42    0.22993      0.00000     0.76735    0.00271     0.77007
      H   43    0.22985      0.00000     0.76740    0.00275     0.77015
      H   44    0.22974      0.00000     0.76653    0.00372     0.77026
      H   45    0.23902      0.00000     0.75825    0.00273     0.76098
      H   46    0.23627      0.00000     0.76128    0.00246     0.76373
      H   47    0.23764      0.00000     0.75969    0.00266     0.76236
 =======================================================================
   * Total *   -0.00000     49.97606   127.47680    0.54714   178.00000

 ******    2 imaginary frequencies (negative Signs) ******

                      1                      2                      3
                      A                      A                      A
 Frequencies --    -56.0222               -45.6075                28.0801
 Red. masses --      7.1909                 5.8707                 4.3217
 Frc consts  --      0.0133                 0.0072                 0.0020
 IR Inten    --      0.1613                 0.1230                 0.0014

                      4                      5                      6
                      A                      A                      A
 Frequencies --     32.0485                41.0221                42.2199
 Red. masses --      3.5537                 3.6788                 4.4674
 Frc consts  --      0.0022                 0.0036                 0.0047
 IR Inten    --      0.0864                 0.3225                 0.0047

                      7                      8                      9
                      A                      A                      A
 Frequencies --     56.8485                94.3746               123.4741
 Red. masses --      6.2815                 6.4608                 4.7936
 Frc consts  --      0.0120                 0.0339                 0.0431
 IR Inten    --      0.2583                 0.2140                 0.4370

                     10                     11                     12
                      A                      A                      A
 Frequencies --    134.0567               159.8130               226.6762
 Red. masses --      4.2826                 2.8747                 1.5268
 Frc consts  --      0.0453                 0.0433                 0.0462
 IR Inten    --      3.7321                 0.0104                 0.0216

                     13                     14                     15
                      A                      A                      A
 Frequencies --    229.9741               244.4457               246.6879
 Red. masses --      4.2025                 3.0994                 2.3447
 Frc consts  --      0.1310                 0.1091                 0.0841
 IR Inten    --      0.4009                 1.4824                 0.0001

                     16                     17                     18
                      A                      A                      A
 Frequencies --    260.9271               264.1703               272.3441
 Red. masses --      2.0525                 2.0147                 1.2858
 Frc consts  --      0.0823                 0.0828                 0.0562
 IR Inten    --      0.0056                 0.8830                 0.0758

                     19                     20                     21
                      A                      A                      A
 Frequencies --    305.0800               338.2001               350.6766
 Red. masses --      3.3325                 3.8747                 4.5487
 Frc consts  --      0.1827                 0.2611                 0.3296
 IR Inten    --      0.1066                 3.0212                 1.8126

                     22                     23                     24
                      A                      A                      A
 Frequencies --    362.1289               367.3020               381.6942
 Red. masses --      6.0466                 3.6962                 3.4081
 Frc consts  --      0.4672                 0.2938                 0.2925
 IR Inten    --      1.0646                 0.7731                 1.2813

                     25                     26                     27
                      A                      A                      A
 Frequencies --    413.3343               417.6988               417.7513
 Red. masses --      4.3285                 2.8467                 2.8690
 Frc consts  --      0.4357                 0.2926                 0.2950
 IR Inten    --     12.9465                 0.0006                 0.3621

                     28                     29                     30
                      A                      A                      A
 Frequencies --    530.1233               541.3795               588.0697
 Red. masses --      3.2787                 3.2219                 4.0108
 Frc consts  --      0.5429                 0.5564                 0.8172
 IR Inten    --      1.8194                11.6150                 0.2174

                     31                     32                     33
                      A                      A                      A
 Frequencies --    604.4490               616.7404               630.2729
 Red. masses --      4.0886                 3.8937                 6.3424
 Frc consts  --      0.8801                 0.8726                 1.4844
 IR Inten    --     22.8250                 7.5862                 0.1291

                     34                     35                     36
                      A                      A                      A
 Frequencies --    630.3681               722.5538               722.7621
 Red. masses --      6.3370                 1.5931                 1.5224
 Frc consts  --      1.4836                 0.4901                 0.4686
 IR Inten    --      0.0608                 1.4302                83.7621

                     37                     38                     39
                      A                      A                      A
 Frequencies --    733.1446               748.3346               763.4198
 Red. masses --      5.6616                 4.9922                 2.7144
 Frc consts  --      1.7929                 1.6472                 0.9321
 IR Inten    --      0.4739                 3.9155                15.0116

                     40                     41                     42
                      A                      A                      A
 Frequencies --    776.5822               782.0028               791.7354
 Red. masses --      2.5947                 2.8103                 3.3480
 Frc consts  --      0.9220                 1.0125                 1.2365
 IR Inten    --      4.2870                12.6530                 4.1044

                     43                     44                     45
                      A                      A                      A
 Frequencies --    791.7662               832.0585               832.5674
 Red. masses --      3.2959                 4.6139                 4.6461
 Frc consts  --      1.2174                 1.8820                 1.8975
 IR Inten    --     14.0385                 4.3676                 7.7387

                     46                     47                     48
                      A                      A                      A
 Frequencies --    863.9047               864.0931               920.5254
 Red. masses --      1.2512                 1.2512                 2.5543
 Frc consts  --      0.5502                 0.5504                 1.2752
 IR Inten    --      0.1216                 0.3968                 0.2049

                     49                     50                     51
                      A                      A                      A
 Frequencies --    939.0319               945.4264               957.5589
 Red. masses --      1.5019                 1.6854                 1.4358
 Frc consts  --      0.7803                 0.8876                 0.7757
 IR Inten    --      5.6250                 0.3748                 1.8376

                     52                     53                     54
                      A                      A                      A
 Frequencies --    977.2548               987.4300               998.0130
 Red. masses --      6.4566                 4.7267                 2.1438
 Frc consts  --      3.6330                 2.7153                 1.2581
 IR Inten    --     70.7844                17.3337                 1.1583

                     55                     56                     57
                      A                      A                      A
 Frequencies --    999.1406              1001.2916              1001.4035
 Red. masses --      2.2989                 1.4454                 1.4817
 Frc consts  --      1.3522                 0.8538                 0.8754
 IR Inten    --      0.4863                 1.2638                 0.1818

                     58                     59                     60
                      A                      A                      A
 Frequencies --   1016.4090              1017.5962              1018.0063
 Red. masses --      4.2224                 4.9316                 3.3264
 Frc consts  --      2.5701                 3.0088                 2.0311
 IR Inten    --      9.5515                 0.5277                15.4525

                     61                     62                     63
                      A                      A                      A
 Frequencies --   1022.5099              1023.7551              1024.7089
 Red. masses --      1.3603                 1.4736                 1.4585
 Frc consts  --      0.8379                 0.9100                 0.9023
 IR Inten    --      0.0332                 0.0351                 3.6210

                     64                     65                     66
                      A                      A                      A
 Frequencies --   1026.8761              1033.0061              1047.0577
 Red. masses --      2.7288                 3.4674                 2.8927
 Frc consts  --      1.6954                 2.1800                 1.8685
 IR Inten    --      0.6087                 5.3051                 6.6031

                     67                     68                     69
                      A                      A                      A
 Frequencies --   1052.8851              1056.2403              1064.5022
 Red. masses --      2.2244                 2.6004                 1.9396
 Frc consts  --      1.4529                 1.7093                 1.2950
 IR Inten    --      3.2104                 0.2057                 4.4081

                     70                     71                     72
                      A                      A                      A
 Frequencies --   1065.0524              1114.2269              1115.0886
 Red. masses --      1.9428                 1.4378                 1.4321
 Frc consts  --      1.2984                 1.0517                 1.0492
 IR Inten    --      2.8284                 8.4971                16.6696

                     73                     74                     75
                      A                      A                      A
 Frequencies --   1169.3869              1170.1701              1170.2567
 Red. masses --      2.4759                 1.0706                 1.1781
 Frc consts  --      1.9948                 0.8638                 0.9506
 IR Inten    --    222.2644                 0.0101                33.1722

                     76                     77                     78
                      A                      A                      A
 Frequencies --   1172.1236              1193.5032              1193.9649
 Red. masses --      3.8687                 1.1102                 1.1148
 Frc consts  --      3.1316                 0.9317                 0.9363
 IR Inten    --     21.9976                 0.3635                 3.2061

                     79                     80                     81
                      A                      A                      A
 Frequencies --   1206.3029              1215.1145              1227.7424
 Red. masses --      1.5116                 1.3551                 2.1225
 Frc consts  --      1.2959                 1.1788                 1.8850
 IR Inten    --      0.2605                26.9529                 0.0830

                     82                     83                     84
                      A                      A                      A
 Frequencies --   1233.8251              1236.8465              1245.7608
 Red. masses --      1.4892                 1.5186                 1.4223
 Frc consts  --      1.3357                 1.3688                 1.3005
 IR Inten    --      2.4943                 2.3630                23.7358

                     85                     86                     87
                      A                      A                      A
 Frequencies --   1248.2608              1304.1138              1324.2088
 Red. masses --      1.3592                 1.9426                 1.6281
 Frc consts  --      1.2478                 1.9465                 1.6821
 IR Inten    --     11.7501                20.4997                12.4029

                     88                     89                     90
                      A                      A                      A
 Frequencies --   1326.3874              1340.5420              1362.2050
 Red. masses --      1.5794                 1.5030                 1.2376
 Frc consts  --      1.6371                 1.5914                 1.3530
 IR Inten    --      1.4032                 0.5924                 7.7491

                     91                     92                     93
                      A                      A                      A
 Frequencies --   1369.9946              1372.7402              1377.7529
 Red. masses --      1.7807                 1.9194                 1.4120
 Frc consts  --      1.9691                 2.1311                 1.5791
 IR Inten    --     13.8869                12.9072                 4.5353

                     94                     95                     96
                      A                      A                      A
 Frequencies --   1405.3567              1405.5831              1419.3960
 Red. masses --      4.9559                 4.7942                 2.0119
 Frc consts  --      5.7670                 5.5805                 2.3881
 IR Inten    --      3.1733                 0.6289                 6.0999

                     97                     98                     99
                      A                      A                      A
 Frequencies --   1434.0548              1452.0519              1458.9406
 Red. masses --      2.0722                 1.0456                 1.0419
 Frc consts  --      2.5109                 1.2989                 1.3067
 IR Inten    --     32.7417                 2.1342                 0.5465

                    100                    101                    102
                      A                      A                      A
 Frequencies --   1472.5395              1484.4187              1488.7753
 Red. masses --      1.0784                 1.1643                 1.4306
 Frc consts  --      1.3777                 1.5116                 1.8683
 IR Inten    --     11.7376                 3.1423                 0.1723

                    103                    104                    105
                      A                      A                      A
 Frequencies --   1495.4480              1497.8555              1505.4950
 Red. masses --      2.0849                 1.8437                 1.5531
 Frc consts  --      2.7472                 2.4372                 2.0740
 IR Inten    --      2.8833                22.6836                76.0973

                    106                    107                    108
                      A                      A                      A
 Frequencies --   1538.7356              1538.7408              1671.4095
 Red. masses --      2.6061                 2.6062                 6.4181
 Frc consts  --      3.6356                 3.6357                10.5639
 IR Inten    --      7.4952                 9.8992                 1.5740

                    109                    110                    111
                      A                      A                      A
 Frequencies --   1671.4202              1691.8241              1691.9349
 Red. masses --      6.4186                 6.4382                 6.4340
 Frc consts  --     10.5649                10.8575                10.8517
 IR Inten    --      0.2606                 4.7607                 1.8030

                    112                    113                    114
                      A                      A                      A
 Frequencies --   1734.5951              1760.6345              3071.4718
 Red. masses --     11.1705                11.3249                 1.0350
 Frc consts  --     19.8025                20.6835                 5.7527
 IR Inten    --     64.2495               250.8436                14.0985

                    115                    116                    117
                      A                      A                      A
 Frequencies --   3072.8719              3092.9359              3093.0156
 Red. masses --      1.0360                 1.0660                 1.0661
 Frc consts  --      5.7635                 6.0085                 6.0092
 IR Inten    --      7.0026                52.8125                 6.0677

                    118                    119                    120
                      A                      A                      A
 Frequencies --   3118.5991              3118.7554              3173.7398
 Red. masses --      1.0876                 1.0876                 1.1047
 Frc consts  --      6.2324                 6.2330                 6.5562
 IR Inten    --     27.4721                10.9763                 3.1682

                    121                    122                    123
                      A                      A                      A
 Frequencies --   3174.5456              3179.2846              3179.3553
 Red. masses --      1.1042                 1.1073                 1.1073
 Frc consts  --      6.5566                 6.5942                 6.5944
 IR Inten    --     11.8485                11.2059                16.1255

                    124                    125                    126
                      A                      A                      A
 Frequencies --   3190.0643              3191.7291              3194.9195
 Red. masses --      1.1060                 1.1052                 1.0874
 Frc consts  --      6.6314                 6.6336                 6.5397
 IR Inten    --      0.0287                12.3516                 4.2900

                    127                    128                    129
                      A                      A                      A
 Frequencies --   3194.9416              3197.7040              3197.7406
 Red. masses --      1.0874                 1.0900                 1.0900
 Frc consts  --      6.5397                 6.5666                 6.5668
 IR Inten    --      2.7810                 0.8374                 1.1993

                    130                    131                    132
                      A                      A                      A
 Frequencies --   3208.4643              3208.4936              3219.0909
 Red. masses --      1.0913                 1.0913                 1.0960
 Frc consts  --      6.6188                 6.6189                 6.6918
 IR Inten    --      2.9197                 2.7908                10.0841

                    133                    134                    135
                      A                      A                      A
 Frequencies --   3219.1308              3228.9691              3228.9829
 Red. masses --      1.0960                 1.1006                 1.1006
 Frc consts  --      6.6920                 6.7608                 6.7609
 IR Inten    --     18.3333                16.7067                 6.1106

 - Thermochemistry -
 -------------------
 Temperature   298.150 Kelvin.  Pressure   1.00000 Atm.
 Atom     1 has atomic number  6 and mass  12.00000

 Molecular mass:   334.16813 amu.
 Principal axes and moments of inertia in atomic units:
                           1         2         3
     Eigenvalues --  4995.47320********************
           X            0.99999   0.00000  -0.00389
           Y           -0.00000   1.00000  -0.00000
           Z            0.00389   0.00000   0.99999
 This molecule is an asymmetric top.
 Rotational symmetry number  1.
 Warning -- assumption of classical behavior for rotation
           may cause significant error
 Rotational temperatures (Kelvin)      0.01734     0.00606     0.00544
 Rotational constants (GHZ):           0.36128     0.12621     0.11326
    2 imaginary frequencies ignored.
 Zero-point vibrational energy    1032602.0 (Joules/Mol)
                                  246.79780 (Kcal/Mol)
 Warning -- explicit consideration of  30 degrees of freedom as
           vibrations may cause significant error
 Vibrational temperatures:     40.40    46.11    59.02    60.75    81.79
          (Kelvin)            135.78   177.65   192.88   229.94   326.14
                              330.88   351.70   354.93   375.42   380.08
                              391.84   438.94   486.59   504.55   521.02
                              528.47   549.17   594.70   600.98   601.05
                              762.73   778.92   846.10   869.67   887.35
                              906.82   906.96  1039.59  1039.89  1054.83
                             1076.69  1098.39  1117.33  1125.13  1139.13
                             1139.17  1197.15  1197.88  1242.97  1243.24
                             1324.43  1351.06  1360.26  1377.71  1406.05
                             1420.69  1435.92  1437.54  1440.64  1440.80
                             1462.39  1464.09  1464.68  1471.16  1472.96
                             1474.33  1477.45  1486.27  1506.48  1514.87
                             1519.69  1531.58  1532.37  1603.12  1604.36
                             1682.49  1683.61  1683.74  1686.42  1717.18
                             1717.85  1735.60  1748.28  1766.45  1775.20
                             1779.55  1792.37  1795.97  1876.33  1905.24
                             1908.38  1928.74  1959.91  1971.12  1975.07
                             1982.28  2021.99  2022.32  2042.19  2063.29
                             2089.18  2099.09  2118.66  2135.75  2142.02
                             2151.62  2155.08  2166.07  2213.90  2213.90
                             2404.79  2404.80  2434.16  2434.32  2495.70
                             2533.16  4419.16  4421.18  4450.04  4450.16
                             4486.97  4487.19  4566.30  4567.46  4574.28
                             4574.38  4589.79  4592.19  4596.78  4596.81
                             4600.78  4600.84  4616.26  4616.31  4631.55
                             4631.61  4645.77  4645.79

 Zero-point correction=                           0.393297 (Hartree/Particle)
 Thermal correction to Energy=                    0.413110
 Thermal correction to Enthalpy=                  0.414055
 Thermal correction to Gibbs Free Energy=         0.343469
 Sum of electronic and zero-point Energies=          -1071.055131
 Sum of electronic and thermal Energies=             -1071.035318
 Sum of electronic and thermal Enthalpies=           -1071.034374
 Sum of electronic and thermal Free Energies=        -1071.104960

                     E (Thermal)             CV                S
                      KCal/Mol        Cal/Mol-Kelvin    Cal/Mol-Kelvin
 Total                  259.231             79.859            148.560
 Electronic               0.000              0.000              0.000
 Translational            0.889              2.981             43.314
 Rotational               0.889              2.981             35.386
 Vibrational            257.453             73.897             69.860
 Vibration     1          0.593              1.984              5.961
 Vibration     2          0.594              1.983              5.698
 Vibration     3          0.594              1.981              5.209
 Vibration     4          0.595              1.980              5.152
 Vibration     5          0.596              1.975              4.564
 Vibration     6          0.603              1.953              3.567
 Vibration     7          0.610              1.929              3.045
 Vibration     8          0.613              1.919              2.887
 Vibration     9          0.622              1.892              2.552
 Vibration    10          0.650              1.800              1.905
 Vibration    11          0.652              1.795              1.879
 Vibration    12          0.660              1.772              1.770
 Vibration    13          0.661              1.768              1.754
 Vibration    14          0.669              1.744              1.656
 Vibration    15          0.671              1.739              1.634
 Vibration    16          0.675              1.724              1.581
 Vibration    17          0.696              1.664              1.389
 Vibration    18          0.719              1.599              1.221
 Vibration    19          0.728              1.574              1.163
 Vibration    20          0.736              1.550              1.113
 Vibration    21          0.740              1.539              1.091
 Vibration    22          0.751              1.509              1.032
 Vibration    23          0.777              1.441              0.915
 Vibration    24          0.781              1.432              0.900
 Vibration    25          0.781              1.432              0.900
 Vibration    26          0.885              1.183              0.587
 Vibration    27          0.896              1.159              0.562
 Vibration    28          0.945              1.057              0.471
 Vibration    29          0.963              1.022              0.442
 Vibration    30          0.976              0.996              0.422

 Normal termination of Gaussian 16 at Thu Nov  3 08:39:57 2022.
