 Gaussian 16, Revision A.03,
 Gaussian 16:  ES64L-G16RevA.03 25-Dec-2016

 ----------------------------------------------------------------------
 #p pop=(regular,nbo,savenbos) freq=noraman def2svp empiricaldispersion
 =gd3bj output=wfx pbe1pbe
 ----------------------------------------------------------------------

 --------
 30_lig_b
 --------
 Symbolic Z-matrix:
 Charge =  0 Multiplicity = 1

                         Standard orientation:
 ---------------------------------------------------------------------
 Center     Atomic      Atomic             Coordinates (Angstroms)
 Number     Number       Type             X           Y           Z
 ---------------------------------------------------------------------
      1          6           0        4.777177   -2.045370    0.076590
      2          6           0        3.344875   -1.702288   -0.310447
      3          6           0        2.714457   -0.785640    0.746163
      4          1           0        2.679309   -1.348191    1.692018
      5          6           0        3.359655    0.603849    0.908967
      6          8           0        2.300783    1.530833    0.604133
      7          6           0        1.210516    0.813642    0.335368
      8          7           0        1.331075   -0.452924    0.401326
      9          7           0       -1.330502   -0.453776   -0.400437
     10          6           0       -1.210292    0.812908   -0.335861
     11          6           0       -0.000174    1.642235   -0.000084
     12          6           0       -0.337692    2.521740    1.220093
     13          6           0        0.336645    2.522682   -1.219733
     14          8           0       -2.300515    1.529516   -0.606287
     15          6           0       -3.358624    0.601950   -0.912056
     16          6           0       -2.713624   -0.787190   -0.745679
     17          1           0       -2.677768   -1.351888   -1.690213
     18          6           0       -3.344825   -1.701451    0.312549
     19          6           0       -3.239370   -1.135722    1.721938
     20          6           0       -4.776459   -2.046379   -0.075343
     21          6           0        3.237331   -1.140277   -1.721175
     22          1           0        5.197835   -2.785654   -0.619727
     23          1           0        4.823991   -2.476385    1.088641
     24          1           0        5.438416   -1.162251    0.049118
     25          1           0        2.750499   -2.630675   -0.257458
     26          1           0        4.184012    0.792241    0.206052
     27          1           0        3.706880    0.811665    1.930243
     28          1           0       -0.586396    1.900434    2.093062
     29          1           0       -1.198449    3.162040    0.987914
     30          1           0        0.525472    3.152051    1.470627
     31          1           0        0.585833    1.902067   -2.093060
     32          1           0        1.196920    3.163472   -0.987211
     33          1           0       -0.526992    3.152461   -1.469920
     34          1           0       -3.703449    0.808113   -1.934492
     35          1           0       -4.184640    0.791387   -0.211397
     36          1           0       -2.749893   -2.629663    0.262649
     37          1           0       -3.752226   -0.163473    1.824081
     38          1           0       -2.188799   -1.007898    2.024351
     39          1           0       -3.701621   -1.823560    2.445190
     40          1           0       -5.438200   -1.163531   -0.051124
     41          1           0       -5.197607   -2.784965    0.622485
     42          1           0       -4.821750   -2.480184   -1.086253
     43          1           0        3.749174   -0.167829   -1.826422
     44          1           0        2.186301   -1.014241   -2.022724
     45          1           0        3.699424   -1.829569   -2.443147
 ---------------------------------------------------------------------

 SCF Done:  E(RPBE1PBE) =  -845.642378234     A.U. after   14 cycles

 The electronic state is 1-A.
 Alpha  occ. eigenvalues --  -19.24057 -19.24051 -14.34932 -14.34928 -10.30849
 Alpha  occ. eigenvalues --  -10.30848 -10.28438 -10.28437 -10.26883 -10.25550
 Alpha  occ. eigenvalues --  -10.25549 -10.23185 -10.23184 -10.23085 -10.23082
 Alpha  occ. eigenvalues --  -10.22428 -10.22428 -10.21594 -10.21592  -1.11492
 Alpha  occ. eigenvalues --   -1.11270  -0.91265  -0.90370  -0.85936  -0.81873
 Alpha  occ. eigenvalues --   -0.81051  -0.75950  -0.74181  -0.70525  -0.69401
 Alpha  occ. eigenvalues --   -0.69392  -0.66305  -0.65587  -0.63920  -0.60036
 Alpha  occ. eigenvalues --   -0.57418  -0.56331  -0.53806  -0.52336  -0.51447
 Alpha  occ. eigenvalues --   -0.50966  -0.48603  -0.47135  -0.46303  -0.45781
 Alpha  occ. eigenvalues --   -0.45672  -0.44601  -0.44046  -0.43703  -0.43610
 Alpha  occ. eigenvalues --   -0.43233  -0.40898  -0.39858  -0.39691  -0.39091
 Alpha  occ. eigenvalues --   -0.38859  -0.38007  -0.37714  -0.37470  -0.36792
 Alpha  occ. eigenvalues --   -0.36365  -0.35662  -0.34830  -0.34729  -0.34533
 Alpha  occ. eigenvalues --   -0.34275  -0.33903  -0.32457  -0.32325  -0.28025
 Alpha  occ. eigenvalues --   -0.24975  -0.24278  -0.23805
 Alpha virt. eigenvalues --    0.03669   0.03704   0.05903   0.06698   0.07707
 Alpha virt. eigenvalues --    0.09041   0.09225   0.09759   0.10636   0.10726
 Alpha virt. eigenvalues --    0.11850   0.12328   0.12590   0.13636   0.13644

 Mulliken charges:
               1
     1  C   -0.033856
     2  C   -0.146999
     3  C   -0.060502
     4  H    0.036943
     5  C    0.233726
     6  O   -0.352348
     7  C    0.170779
     8  N   -0.192177
     9  N   -0.192197
    10  C    0.170797
    11  C   -0.313387
    12  C    0.011853
    13  C    0.011875
    14  O   -0.352349
    15  C    0.233690
    16  C   -0.060483
    17  H    0.036926
    18  C   -0.146994
    19  C   -0.049541
    20  C   -0.033818
    21  C   -0.049518
    22  H    0.042737
    23  H    0.037231
    24  H    0.029007
    25  H    0.047928
    26  H    0.043302
    27  H    0.044910
    28  H    0.050360
    29  H    0.058101
    30  H    0.057104
    31  H    0.050301
    32  H    0.058099
    33  H    0.057113
    34  H    0.044909
    35  H    0.043322
    36  H    0.047948
    37  H    0.026576
    38  H    0.065649
    39  H    0.035910
    40  H    0.028989
    41  H    0.042733
    42  H    0.037232
    43  H    0.026558
    44  H    0.065681
    45  H    0.035883
 Sum of Mulliken charges =  -0.00000

 Dipole moment (field-independent basis, Debye):
    X=             -0.0004    Y=              0.4600    Z=             -0.0009  Tot=              0.4600
 Quadrupole moment (field-independent basis, Debye-Ang):
   XX=           -103.8488   YY=           -117.5390   ZZ=           -113.9897
   XY=              0.0033   XZ=              3.2817   YZ=              0.0049

  Exact polarizability: 196.511   0.006 176.624   4.589  -0.001 150.380
 Approx polarizability: 234.328   0.000 263.105   5.449  -0.026 211.269

 Summary of Natural Population Analysis:

                                       Natural Population
                Natural  -----------------------------------------------
    Atom  No    Charge         Core      Valence    Rydberg      Total
 -----------------------------------------------------------------------
      C    1   -0.65264      1.99922     4.64284    0.01058     6.65264
      C    2   -0.26168      1.99898     4.24676    0.01594     6.26168
      C    3   -0.08484      1.99898     4.06129    0.02457     6.08484
      H    4    0.23752      0.00000     0.75871    0.00377     0.76248
      C    5   -0.08808      1.99904     4.06981    0.01923     6.08808
      O    6   -0.57833      1.99965     6.56787    0.01082     8.57833
      C    7    0.62308      1.99900     3.32779    0.05013     5.37692
      N    8   -0.53356      1.99926     5.51762    0.01668     7.53356
      N    9   -0.53357      1.99926     5.51762    0.01668     7.53357
      C   10    0.62308      1.99900     3.32779    0.05013     5.37692
      C   11   -0.17040      1.99880     4.15428    0.01731     6.17040
      C   12   -0.63682      1.99924     4.62447    0.01312     6.63682
      C   13   -0.63687      1.99924     4.62451    0.01312     6.63687
      O   14   -0.57833      1.99965     6.56787    0.01082     8.57833
      C   15   -0.08808      1.99904     4.06981    0.01923     6.08808
      C   16   -0.08485      1.99898     4.06130    0.02457     6.08485
      H   17    0.23754      0.00000     0.75869    0.00377     0.76246
      C   18   -0.26169      1.99898     4.24677    0.01594     6.26169
      C   19   -0.66244      1.99922     4.65182    0.01140     6.66244
      C   20   -0.65263      1.99922     4.64283    0.01058     6.65263
      C   21   -0.66244      1.99922     4.65181    0.01140     6.66244
      H   22    0.22924      0.00000     0.76824    0.00252     0.77076
      H   23    0.22282      0.00000     0.77455    0.00263     0.77718
      H   24    0.21268      0.00000     0.78448    0.00284     0.78732
      H   25    0.24759      0.00000     0.74731    0.00510     0.75241
      H   26    0.20606      0.00000     0.79073    0.00320     0.79394
      H   27    0.21368      0.00000     0.78353    0.00280     0.78632
      H   28    0.23339      0.00000     0.76426    0.00235     0.76661
      H   29    0.23909      0.00000     0.75820    0.00271     0.76091
      H   30    0.23820      0.00000     0.75906    0.00274     0.76180
      H   31    0.23337      0.00000     0.76428    0.00235     0.76663
      H   32    0.23911      0.00000     0.75819    0.00270     0.76089
      H   33    0.23822      0.00000     0.75904    0.00274     0.76178
      H   34    0.21365      0.00000     0.78355    0.00280     0.78635
      H   35    0.20610      0.00000     0.79070    0.00320     0.79390
      H   36    0.24760      0.00000     0.74729    0.00510     0.75240
      H   37    0.21160      0.00000     0.78581    0.00259     0.78840
      H   38    0.24251      0.00000     0.75407    0.00342     0.75749
      H   39    0.22612      0.00000     0.77143    0.00245     0.77388
      H   40    0.21267      0.00000     0.78449    0.00284     0.78733
      H   41    0.22924      0.00000     0.76825    0.00252     0.77076
      H   42    0.22282      0.00000     0.77455    0.00263     0.77718
      H   43    0.21159      0.00000     0.78582    0.00259     0.78841
      H   44    0.24256      0.00000     0.75402    0.00342     0.75744
      H   45    0.22610      0.00000     0.77146    0.00245     0.77390
 =======================================================================
   * Total *   -0.00000     37.98400   107.57553    0.44046   146.00000

 ******    2 imaginary frequencies (negative Signs) ******

                      1                      2                      3
                      A                      A                      A
 Frequencies --    -93.9212               -72.0278                29.3941
 Red. masses --      6.9077                 5.5744                 3.1061
 Frc consts  --      0.0359                 0.0170                 0.0016
 IR Inten    --      0.0801                 0.2891                 0.0052

                      4                      5                      6
                      A                      A                      A
 Frequencies --     35.5807                69.3973                74.3742
 Red. masses --      2.9863                 4.2809                 2.8180
 Frc consts  --      0.0022                 0.0121                 0.0092
 IR Inten    --      0.1178                 0.3580                 0.4484

                      7                      8                      9
                      A                      A                      A
 Frequencies --     77.9934               113.7873               154.4594
 Red. masses --      2.6872                 2.8938                 2.5311
 Frc consts  --      0.0096                 0.0221                 0.0356
 IR Inten    --      0.0106                 1.3724                 0.1814

                     10                     11                     12
                      A                      A                      A
 Frequencies --    185.5378               207.1782               225.1066
 Red. masses --      3.8140                 1.6802                 1.1111
 Frc consts  --      0.0774                 0.0425                 0.0332
 IR Inten    --      3.2229                 0.1042                 0.6417

                     13                     14                     15
                      A                      A                      A
 Frequencies --    227.3467               231.4223               238.7042
 Red. masses --      1.1939                 1.4057                 1.3830
 Frc consts  --      0.0364                 0.0444                 0.0464
 IR Inten    --      0.0089                 0.0126                 0.1469

                     16                     17                     18
                      A                      A                      A
 Frequencies --    249.1970               256.4202               263.7780
 Red. masses --      1.3776                 1.6168                 1.5701
 Frc consts  --      0.0504                 0.0626                 0.0644
 IR Inten    --      0.0007                 0.1411                 0.0260

                     19                     20                     21
                      A                      A                      A
 Frequencies --    267.6974               271.2367               287.9048
 Red. masses --      1.7166                 1.4738                 2.4218
 Frc consts  --      0.0725                 0.0639                 0.1183
 IR Inten    --      0.3101                 0.3191                 0.0582

                     22                     23                     24
                      A                      A                      A
 Frequencies --    293.3958               318.5472               355.3842
 Red. masses --      2.4698                 3.2050                 3.9474
 Frc consts  --      0.1253                 0.1916                 0.2937
 IR Inten    --      0.2867                 0.0223                 5.5032

                     25                     26                     27
                      A                      A                      A
 Frequencies --    362.1535               363.1374               387.0679
 Red. masses --      2.5964                 2.6602                 3.1728
 Frc consts  --      0.2006                 0.2067                 0.2801
 IR Inten    --      0.1732                 7.7380                 4.2883

                     28                     29                     30
                      A                      A                      A
 Frequencies --    464.6851               509.3651               549.3063
 Red. masses --      3.2492                 3.5704                 2.3096
 Frc consts  --      0.4134                 0.5458                 0.4106
 IR Inten    --      0.0068                 5.5700                 0.4379

                     31                     32                     33
                      A                      A                      A
 Frequencies --    553.4399               621.1431               705.7158
 Red. masses --      2.5118                 4.2873                 4.2776
 Frc consts  --      0.4533                 0.9746                 1.2552
 IR Inten    --      2.7725                13.5803                 1.4272

                     34                     35                     36
                      A                      A                      A
 Frequencies --    717.7896               769.2250               769.5047
 Red. masses --      3.6540                 4.3557                 2.7063
 Frc consts  --      1.1092                 1.5185                 0.9442
 IR Inten    --      0.3583                 1.3243                 0.1934

                     37                     38                     39
                      A                      A                      A
 Frequencies --    777.2425               827.7275               828.9128
 Red. masses --      4.8804                 3.4384                 3.4427
 Frc consts  --      1.7371                 1.3880                 1.3937
 IR Inten    --      5.0145                 1.6008                 7.5732

                     40                     41                     42
                      A                      A                      A
 Frequencies --    911.8646               912.2992               919.9026
 Red. masses --      2.0819                 2.0486                 2.0706
 Frc consts  --      1.0199                 1.0046                 1.0323
 IR Inten    --      1.0300                 0.0117                 4.0204

                     43                     44                     45
                      A                      A                      A
 Frequencies --    925.6228               928.2781               956.9261
 Red. masses --      1.1773                 1.4608                 1.4397
 Frc consts  --      0.5943                 0.7417                 0.7768
 IR Inten    --      3.7472                 0.0474                 2.0144

                     46                     47                     48
                      A                      A                      A
 Frequencies --    962.0302               963.0473               968.0185
 Red. masses --      1.4098                 1.4260                 2.3273
 Frc consts  --      0.7687                 0.7792                 1.2849
 IR Inten    --     10.8516                 2.4106                22.5472

                     49                     50                     51
                      A                      A                      A
 Frequencies --    982.0075              1013.8145              1021.2238
 Red. masses --      1.8356                 2.8109                 1.3742
 Frc consts  --      1.0430                 1.7022                 0.8444
 IR Inten    --      9.4405                30.2189                 0.3184

                     52                     53                     54
                      A                      A                      A
 Frequencies --   1022.6202              1026.6616              1030.0287
 Red. masses --      3.3271                 2.2257                 1.9580
 Frc consts  --      2.0500                 1.3822                 1.2240
 IR Inten    --     16.0995                 3.9355                 3.9969

                     55                     56                     57
                      A                      A                      A
 Frequencies --   1031.6151              1037.2406              1078.1819
 Red. masses --      3.1277                 4.6012                 2.8343
 Frc consts  --      1.9612                 2.9167                 1.9413
 IR Inten    --     24.0103                 0.6183                41.4468

                     58                     59                     60
                      A                      A                      A
 Frequencies --   1089.8823              1139.6294              1141.2689
 Red. masses --      2.7501                 1.9001                 1.8724
 Frc consts  --      1.9247                 1.4540                 1.4369
 IR Inten    --      0.3024                 6.2927                13.1828

                     61                     62                     63
                      A                      A                      A
 Frequencies --   1162.3788              1167.1158              1173.6299
 Red. masses --      2.3135                 1.9434                 3.3930
 Frc consts  --      1.8417                 1.5597                 2.7536
 IR Inten    --     48.8655                 0.0033               118.3076

                     64                     65                     66
                      A                      A                      A
 Frequencies --   1176.2251              1210.0523              1212.9020
 Red. masses --      2.6304                 1.6051                 1.5793
 Frc consts  --      2.1441                 1.3847                 1.3689
 IR Inten    --    118.7683                 3.0823                16.2189

                     67                     68                     69
                      A                      A                      A
 Frequencies --   1222.5993              1223.2009              1224.6981
 Red. masses --      1.1752                 1.1960                 2.5633
 Frc consts  --      1.0350                 1.0543                 2.2652
 IR Inten    --      1.3495                 3.5542                 0.5671

                     70                     71                     72
                      A                      A                      A
 Frequencies --   1264.1095              1267.5091              1293.0527
 Red. masses --      1.4671                 1.3143                 1.5000
 Frc consts  --      1.3812                 1.2440                 1.4776
 IR Inten    --     40.8309                 3.4208                12.6493

                     73                     74                     75
                      A                      A                      A
 Frequencies --   1315.2938              1337.3689              1339.5276
 Red. masses --      1.4060                 1.4997                 1.6263
 Frc consts  --      1.4331                 1.5803                 1.7193
 IR Inten    --      2.1659                 1.7383                 0.9875

                     76                     77                     78
                      A                      A                      A
 Frequencies --   1347.0865              1353.4498              1361.6785
 Red. masses --      1.8454                 1.4864                 1.2370
 Frc consts  --      1.9730                 1.6043                 1.3513
 IR Inten    --      5.1395                 0.4627                 7.7615

                     79                     80                     81
                      A                      A                      A
 Frequencies --   1366.5718              1373.4778              1378.8570
 Red. masses --      1.3621                 1.4926                 1.3448
 Frc consts  --      1.4988                 1.6590                 1.5065
 IR Inten    --     11.4600                 2.9069                 3.3160

                     82                     83                     84
                      A                      A                      A
 Frequencies --   1393.9546              1394.2745              1405.2028
 Red. masses --      1.3855                 1.3911                 1.4335
 Frc consts  --      1.5861                 1.5933                 1.6677
 IR Inten    --      0.0439                18.1429                22.6909

                     85                     86                     87
                      A                      A                      A
 Frequencies --   1405.7264              1424.0343              1435.7131
 Red. masses --      1.4229                 2.0016                 1.9315
 Frc consts  --      1.6567                 2.3914                 2.3458
 IR Inten    --      1.4761                 7.7144                38.7212

                     88                     89                     90
                      A                      A                      A
 Frequencies --   1452.0172              1456.2337              1456.8699
 Red. masses --      1.0456                 1.0468                 1.0479
 Frc consts  --      1.2989                 1.3079                 1.3104
 IR Inten    --      2.6100                 0.0907                 1.0866

                     91                     92                     93
                      A                      A                      A
 Frequencies --   1458.9032              1462.7318              1463.1790
 Red. masses --      1.0432                 1.0719                 1.0759
 Frc consts  --      1.3082                 1.3512                 1.3572
 IR Inten    --      0.9141                 1.7794                 0.2576

                     94                     95                     96
                      A                      A                      A
 Frequencies --   1472.1178              1475.9137              1478.0391
 Red. masses --      1.0680                 1.0564                 1.0861
 Frc consts  --      1.3637                 1.3558                 1.3979
 IR Inten    --      0.3154                 2.2810                15.1961

                     97                     98                     99
                      A                      A                      A
 Frequencies --   1483.7322              1484.3843              1489.8973
 Red. masses --      1.0874                 1.0923                 1.0844
 Frc consts  --      1.4104                 1.4180                 1.4182
 IR Inten    --      8.7913                12.4210                 0.3192

                    100                    101                    102
                      A                      A                      A
 Frequencies --   1495.3446              1506.6355              1744.2629
 Red. masses --      1.1660                 1.5496                11.1988
 Frc consts  --      1.5361                 2.0725                20.0746
 IR Inten    --     12.9720                76.7484                38.2020

                    103                    104                    105
                      A                      A                      A
 Frequencies --   1771.0302              3044.1206              3044.1267
 Red. masses --     11.3490                 1.0389                 1.0389
 Frc consts  --     20.9730                 5.6722                 5.6722
 IR Inten    --    273.7709                19.1888                21.9266

                    106                    107                    108
                      A                      A                      A
 Frequencies --   3046.7143              3046.7816              3068.8349
 Red. masses --      1.0412                 1.0412                 1.0845
 Frc consts  --      5.6942                 5.6946                 6.0176
 IR Inten    --     30.5451                 1.7080                10.7057

                    109                    110                    111
                      A                      A                      A
 Frequencies --   3068.9353              3071.8607              3073.3259
 Red. masses --      1.0845                 1.0350                 1.0361
 Frc consts  --      6.0178                 5.7545                 5.7657
 IR Inten    --      4.5134                16.3491                 6.9958

                    112                    113                    114
                      A                      A                      A
 Frequencies --   3086.1604              3086.2834              3095.1886
 Red. masses --      1.0842                 1.0840                 1.0638
 Frc consts  --      6.0840                 6.0834                 6.0044
 IR Inten    --     20.7297                25.7357                71.4746

                    115                    116                    117
                      A                      A                      A
 Frequencies --   3095.5046              3133.9059              3133.9129
 Red. masses --      1.0640                 1.1014                 1.1014
 Frc consts  --      6.0068                 6.3734                 6.3735
 IR Inten    --      0.9127                14.0426                 8.2045

                    118                    119                    120
                      A                      A                      A
 Frequencies --   3137.3285              3137.4513              3152.4152
 Red. masses --      1.1001                 1.1001                 1.1033
 Frc consts  --      6.3797                 6.3802                 6.4597
 IR Inten    --      6.5305                66.2493                14.5490

                    121                    122                    123
                      A                      A                      A
 Frequencies --   3152.4564              3156.0945              3156.1396
 Red. masses --      1.1033                 1.1033                 1.1033
 Frc consts  --      6.4600                 6.4748                 6.4750
 IR Inten    --     18.9613                18.3880                 7.0675

                    124                    125                    126
                      A                      A                      A
 Frequencies --   3158.6745              3158.7256              3173.5475
 Red. masses --      1.1119                 1.1119                 1.1046
 Frc consts  --      6.5360                 6.5362                 6.5544
 IR Inten    --      0.7410                42.6090                 5.6453

                    127                    128                    129
                      A                      A                      A
 Frequencies --   3174.4778              3190.8103              3192.5407
 Red. masses --      1.1040                 1.1060                 1.1053
 Frc consts  --      6.5548                 6.6347                 6.6372
 IR Inten    --     12.6538                 0.0306                11.8656

 - Thermochemistry -
 -------------------
 Temperature   298.150 Kelvin.  Pressure   1.00000 Atm.
 Atom     1 has atomic number  6 and mass  12.00000

 Molecular mass:   266.19943 amu.
 Principal axes and moments of inertia in atomic units:
                           1         2         3
     Eigenvalues --  2976.357038270.355409673.99717
           X            0.99997  -0.00001  -0.00826
           Y            0.00001   1.00000   0.00003
           Z            0.00826  -0.00003   0.99997
 This molecule is an asymmetric top.
 Rotational symmetry number  1.
 Warning -- assumption of classical behavior for rotation
           may cause significant error
 Rotational temperatures (Kelvin)      0.02910     0.01047     0.00895
 Rotational constants (GHZ):           0.60636     0.21822     0.18656
    2 imaginary frequencies ignored.
 Zero-point vibrational energy    1047448.6 (Joules/Mol)
                                  250.34621 (Kcal/Mol)
 Warning -- explicit consideration of  29 degrees of freedom as
           vibrations may cause significant error
 Vibrational temperatures:     42.29    51.19    99.85   107.01   112.22
          (Kelvin)            163.71   222.23   266.95   298.08   323.88
                              327.10   332.97   343.44   358.54   368.93
                              379.52   385.16   390.25   414.23   422.13
                              458.32   511.32   521.06   522.47   556.90
                              668.58   732.86   790.33   796.28   893.69
                             1015.37  1032.74  1106.74  1107.15  1118.28
                             1190.92  1192.62  1311.97  1312.60  1323.53
                             1331.76  1335.59  1376.80  1384.15  1385.61
                             1392.76  1412.89  1458.65  1469.31  1471.32
                             1477.14  1481.98  1484.26  1492.36  1551.26
                             1568.10  1639.67  1642.03  1672.40  1679.22
                             1688.59  1692.33  1741.00  1745.10  1759.05
                             1759.91  1762.07  1818.77  1823.66  1860.41
                             1892.41  1924.18  1927.28  1938.16  1947.31
                             1959.15  1966.19  1976.13  1983.87  2005.59
                             2006.05  2021.77  2022.53  2048.87  2065.67
                             2089.13  2095.20  2096.11  2099.04  2104.54
                             2105.19  2118.05  2123.51  2126.57  2134.76
                             2135.70  2143.63  2151.47  2167.71  2509.61
                             2548.12  4379.81  4379.82  4383.54  4383.64
                             4415.37  4415.51  4419.72  4421.83  4440.30
                             4440.47  4453.29  4453.74  4508.99  4509.00
                             4513.92  4514.09  4535.62  4535.68  4540.92
                             4540.98  4544.63  4544.70  4566.03  4567.37
                             4590.86  4593.35

 Zero-point correction=                           0.398952 (Hartree/Particle)
 Thermal correction to Energy=                    0.418205
 Thermal correction to Enthalpy=                  0.419149
 Thermal correction to Gibbs Free Energy=         0.351665
 Sum of electronic and zero-point Energies=           -845.243426
 Sum of electronic and thermal Energies=              -845.224174
 Sum of electronic and thermal Enthalpies=            -845.223229
 Sum of electronic and thermal Free Energies=         -845.290714

                     E (Thermal)             CV                S
                      KCal/Mol        Cal/Mol-Kelvin    Cal/Mol-Kelvin
 Total                  262.427             74.432            142.032
 Electronic               0.000              0.000              0.000
 Translational            0.889              2.981             42.636
 Rotational               0.889              2.981             33.831
 Vibrational            260.650             68.471             65.564
 Vibration     1          0.593              1.984              5.870
 Vibration     2          0.594              1.982              5.491
 Vibration     3          0.598              1.969              4.170
 Vibration     4          0.599              1.966              4.034
 Vibration     5          0.599              1.964              3.941
 Vibration     6          0.607              1.938              3.203
 Vibration     7          0.620              1.898              2.617
 Vibration     8          0.632              1.860              2.272
 Vibration     9          0.641              1.830              2.068
 Vibration    10          0.650              1.803              1.918
 Vibration    11          0.651              1.799              1.900
 Vibration    12          0.653              1.793              1.868
 Vibration    13          0.657              1.781              1.813
 Vibration    14          0.662              1.764              1.736
 Vibration    15          0.666              1.752              1.686
 Vibration    16          0.670              1.739              1.637
 Vibration    17          0.673              1.732              1.611
 Vibration    18          0.675              1.726              1.588
 Vibration    19          0.685              1.696              1.486
 Vibration    20          0.688              1.686              1.454
 Vibration    21          0.705              1.638              1.318
 Vibration    22          0.731              1.564              1.142
 Vibration    23          0.736              1.550              1.113
 Vibration    24          0.737              1.548              1.109
 Vibration    25          0.755              1.498              1.011
 Vibration    26          0.822              1.328              0.753
 Vibration    27          0.865              1.229              0.635
 Vibration    28          0.905              1.141              0.546
 Vibration    29          0.909              1.132              0.537

 Normal termination of Gaussian 16 at Thu Nov  3 08:30:45 2022.
