 Gaussian 16, Revision A.03,
 Gaussian 16:  ES64L-G16RevA.03 25-Dec-2016

 ----------------------------------------------------------------------
 #p pop=(regular,nbo,savenbos) freq=noraman def2svp empiricaldispersion
 =gd3bj output=wfx pbe1pbe
 ----------------------------------------------------------------------

 ------
 03_lig
 ------
 Symbolic Z-matrix:
 Charge =  0 Multiplicity = 1

                         Standard orientation:
 ---------------------------------------------------------------------
 Center     Atomic      Atomic             Coordinates (Angstroms)
 Number     Number       Type             X           Y           Z
 ---------------------------------------------------------------------
      1          6           0       -0.499841    2.153295    0.214849
      2          1           0       -0.037029    2.217029    1.219842
      3          6           0        0.659474    1.881631   -0.768906
      4          1           0        0.194681    1.668706   -1.750745
      5          6           0        1.589721    3.082646   -0.884863
      6          6           0        0.826453    4.363700   -1.197823
      7          6           0       -0.270245    4.621862   -0.174875
      8          6           0       -1.234368    3.444662   -0.103741
      9          7           0        1.301884    0.645781   -0.339997
     10          6           0        2.547601    0.439498   -0.482004
     11          6           0        3.204875   -0.777019    0.015325
     12          6           0        2.724300   -2.078164   -0.206160
     13          6           0        3.359849   -3.188810    0.340097
     14          6           0        4.499247   -3.012404    1.117457
     15          6           0        5.017184   -1.740195    1.340552
     16          6           0        4.371944   -0.642733    0.785097
     17         17           0        5.001105    0.939731    1.095841
     18         17           0        1.329543   -2.343420   -1.195354
     19          7           0       -1.290345    0.940869    0.227896
     20          6           0       -2.554455    0.918693    0.144984
     21          6           0       -3.293709   -0.353055    0.077329
     22          6           0       -4.325114   -0.602144    0.991746
     23          6           0       -5.028390   -1.800551    1.002886
     24          6           0       -4.710412   -2.773774    0.061196
     25          6           0       -3.710859   -2.552653   -0.879967
     26          6           0       -3.008712   -1.352781   -0.864190
     27         17           0       -1.785816   -1.113699   -2.068005
     28         17           0       -4.697397    0.608093    2.175218
     29          1           0        2.345565    2.905431   -1.665889
     30          1           0        2.132684    3.187485    0.071108
     31          1           0        0.377171    4.287184   -2.204038
     32          1           0        1.528862    5.210594   -1.236088
     33          1           0       -0.819909    5.543420   -0.420977
     34          1           0        0.183732    4.783028    0.818291
     35          1           0       -1.758106    3.336703   -1.071259
     36          1           0       -2.006373    3.629229    0.660046
     37          1           0        3.206783    1.196778   -0.928767
     38          1           0        2.947106   -4.180744    0.155316
     39          1           0        4.991767   -3.881684    1.558095
     40          1           0        5.905187   -1.587204    1.954384
     41          1           0       -3.156594    1.841460    0.128889
     42          1           0       -5.804673   -1.963248    1.751019
     43          1           0       -5.250040   -3.723123    0.062019
     44          1           0       -3.455241   -3.309800   -1.621400
 ---------------------------------------------------------------------

 SCF Done:  E(RPBE1PBE) =  -2720.45055335     A.U. after   15 cycles

 The electronic state is 1-A.
 Alpha  occ. eigenvalues -- -101.69072-101.68914-101.67842-101.67355 -14.37847
 Alpha  occ. eigenvalues --  -14.37770 -10.30658 -10.30612 -10.30458 -10.30334
 Alpha  occ. eigenvalues --  -10.27567 -10.27513 -10.26477 -10.26455 -10.26225
 Alpha  occ. eigenvalues --  -10.26102 -10.25805 -10.25788 -10.25539 -10.25499
 Alpha  occ. eigenvalues --  -10.25360 -10.25285 -10.23369 -10.23357 -10.23254
 Alpha  occ. eigenvalues --  -10.23252  -9.54267  -9.54108  -9.53025  -9.52554
 Alpha  occ. eigenvalues --   -7.28388  -7.28231  -7.27426  -7.27389  -7.27266
 Alpha  occ. eigenvalues --   -7.27229  -7.27168  -7.26703  -7.26186  -7.26120
 Alpha  occ. eigenvalues --   -7.25712  -7.25640  -0.95749  -0.94505  -0.93035
 Alpha  occ. eigenvalues --   -0.91788  -0.89905  -0.89754  -0.84930  -0.84736
 Alpha  occ. eigenvalues --   -0.84629  -0.79471  -0.78876  -0.75704  -0.75155
 Alpha  occ. eigenvalues --   -0.75040  -0.74971  -0.67733  -0.66815  -0.63896
 Alpha  occ. eigenvalues --   -0.62553  -0.62144  -0.61906  -0.58898  -0.57630
 Alpha  occ. eigenvalues --   -0.56738  -0.53308  -0.52949  -0.52662  -0.51576
 Alpha  occ. eigenvalues --   -0.50432  -0.49211  -0.48443  -0.47851  -0.47090
 Alpha  occ. eigenvalues --   -0.46693  -0.46303  -0.45521  -0.45365  -0.45079
 Alpha  occ. eigenvalues --   -0.43754  -0.42895  -0.42470  -0.41627  -0.41004
 Alpha  occ. eigenvalues --   -0.39599  -0.39358  -0.39320  -0.38874  -0.37962
 Alpha  occ. eigenvalues --   -0.37687  -0.37639  -0.36708  -0.35435  -0.34018
 Alpha  occ. eigenvalues --   -0.33795  -0.33596  -0.33434  -0.33280  -0.33208
 Alpha  occ. eigenvalues --   -0.32601  -0.31939  -0.31074  -0.30414  -0.26685
 Alpha  occ. eigenvalues --   -0.26323  -0.25991  -0.25528  -0.25162  -0.23125
 Alpha virt. eigenvalues --   -0.04310  -0.03757  -0.02005  -0.01932   0.01922
 Alpha virt. eigenvalues --    0.02574   0.03353   0.03675   0.06482   0.07745
 Alpha virt. eigenvalues --    0.08332   0.08573   0.09370   0.09852   0.10087

 Mulliken charges:
               1
     1  C    0.006275
     2  H    0.042410
     3  C   -0.009086
     4  H    0.042221
     5  C   -0.049789
     6  C   -0.022824
     7  C   -0.016125
     8  C   -0.045475
     9  N   -0.153506
    10  C   -0.020959
    11  C    0.063589
    12  C    0.005001
    13  C    0.016364
    14  C   -0.015994
    15  C    0.014150
    16  C    0.000886
    17  Cl  -0.084435
    18  Cl  -0.057363
    19  N   -0.152274
    20  C   -0.031649
    21  C    0.065848
    22  C    0.000581
    23  C    0.012436
    24  C   -0.016122
    25  C    0.015993
    26  C    0.012115
    27  Cl  -0.062840
    28  Cl  -0.084581
    29  H    0.054476
    30  H    0.034849
    31  H    0.029095
    32  H    0.035551
    33  H    0.034622
    34  H    0.029598
    35  H    0.033808
    36  H    0.053233
    37  H    0.026995
    38  H    0.022282
    39  H    0.035462
    40  H    0.022493
    41  H    0.031853
    42  H    0.022714
    43  H    0.035590
    44  H    0.022535
 Sum of Mulliken charges =  -0.00000

 Dipole moment (field-independent basis, Debye):
    X=              0.0293    Y=             -0.0113    Z=             -0.0908  Tot=              0.0961
 Quadrupole moment (field-independent basis, Debye-Ang):
   XX=           -163.9454   YY=           -157.1674   ZZ=           -178.3076
   XY=              1.4644   XZ=              2.7181   YZ=             -4.2654

  Exact polarizability: 306.957  16.976 300.997   1.872   6.163 195.131
 Approx polarizability: 426.392  30.435 428.067   5.885  23.811 327.552

 Summary of Natural Population Analysis:

                                       Natural Population
                Natural  -----------------------------------------------
    Atom  No    Charge         Core      Valence    Rydberg      Total
 -----------------------------------------------------------------------
      C    1   -0.05816      1.99895     4.03557    0.02364     6.05816
      H    2    0.25101      0.00000     0.74433    0.00466     0.74899
      C    3   -0.05586      1.99894     4.03384    0.02307     6.05586
      H    4    0.24942      0.00000     0.74544    0.00514     0.75058
      C    5   -0.47809      1.99910     4.46464    0.01435     6.47809
      C    6   -0.44122      1.99912     4.42817    0.01393     6.44122
      C    7   -0.44050      1.99912     4.42732    0.01405     6.44050
      C    8   -0.48190      1.99910     4.46840    0.01441     6.48190
      N    9   -0.42951      1.99922     5.40921    0.02107     7.42951
      C   10    0.09665      1.99906     3.87559    0.02870     5.90335
      C   11   -0.11947      1.99866     4.10127    0.01954     6.11947
      C   12    0.00637      1.99858     3.96938    0.02567     5.99363
      C   13   -0.24301      1.99883     4.22726    0.01693     6.24301
      C   14   -0.20226      1.99895     4.18887    0.01444     6.20226
      C   15   -0.24895      1.99882     4.23306    0.01707     6.24895
      C   16   -0.00008      1.99858     3.97715    0.02435     6.00008
     Cl   17    0.00044      9.99958     6.98407    0.01592    16.99956
     Cl   18    0.02186      9.99958     6.96172    0.01685    16.97814
      N   19   -0.42854      1.99921     5.40792    0.02141     7.42854
      C   20    0.09364      1.99905     3.87846    0.02885     5.90636
      C   21   -0.11526      1.99865     4.09665    0.01996     6.11526
      C   22    0.00062      1.99857     3.97635    0.02446     5.99938
      C   23   -0.24700      1.99882     4.23116    0.01702     6.24700
      C   24   -0.20310      1.99895     4.18972    0.01444     6.20310
      C   25   -0.24278      1.99882     4.22708    0.01687     6.24278
      C   26    0.00737      1.99857     3.96887    0.02519     5.99263
     Cl   27    0.01311      9.99957     6.97086    0.01646    16.98689
     Cl   28    0.00100      9.99958     6.98363    0.01579    16.99900
      H   29    0.23697      0.00000     0.75959    0.00344     0.76303
      H   30    0.23088      0.00000     0.76453    0.00458     0.76912
      H   31    0.22121      0.00000     0.77489    0.00391     0.77879
      H   32    0.23546      0.00000     0.76119    0.00335     0.76454
      H   33    0.23522      0.00000     0.76145    0.00334     0.76478
      H   34    0.22172      0.00000     0.77435    0.00393     0.77828
      H   35    0.22820      0.00000     0.76777    0.00404     0.77180
      H   36    0.24035      0.00000     0.75620    0.00346     0.75965
      H   37    0.18234      0.00000     0.81062    0.00703     0.81766
      H   38    0.25009      0.00000     0.74650    0.00341     0.74991
      H   39    0.24001      0.00000     0.75727    0.00272     0.75999
      H   40    0.24916      0.00000     0.74756    0.00328     0.75084
      H   41    0.18273      0.00000     0.81033    0.00694     0.81727
      H   42    0.24952      0.00000     0.74723    0.00326     0.75048
      H   43    0.24014      0.00000     0.75714    0.00272     0.75986
      H   44    0.25021      0.00000     0.74641    0.00337     0.74979
 =======================================================================
   * Total *   -0.00000     83.97396   135.44904    0.57700   220.00000

 ******    2 imaginary frequencies (negative Signs) ******

                      1                      2                      3
                      A                      A                      A
 Frequencies --    -76.2408                -5.4610                10.0160
 Red. masses --      3.6498                 6.7175                14.8050
 Frc consts  --      0.0125                 0.0001                 0.0009
 IR Inten    --      1.1393                 0.3286                 0.0215

                      4                      5                      6
                      A                      A                      A
 Frequencies --     16.6767                35.0495                42.2253
 Red. masses --      7.4985                 7.1676                 5.5468
 Frc consts  --      0.0012                 0.0052                 0.0058
 IR Inten    --      1.5676                 0.4584                 1.1855

                      7                      8                      9
                      A                      A                      A
 Frequencies --     44.3120                59.8234                74.7434
 Red. masses --      8.3543                 5.9575                13.1638
 Frc consts  --      0.0097                 0.0126                 0.0433
 IR Inten    --      0.5257                 3.6693                 0.0412

                     10                     11                     12
                      A                      A                      A
 Frequencies --     96.6140               132.4628               146.4844
 Red. masses --      4.0951                 5.1004                 5.8119
 Frc consts  --      0.0225                 0.0527                 0.0735
 IR Inten    --      0.5783                 0.4120                 1.0969

                     13                     14                     15
                      A                      A                      A
 Frequencies --    172.5758               189.8405               203.6696
 Red. masses --      7.3496                 2.8868                 4.4883
 Frc consts  --      0.1290                 0.0613                 0.1097
 IR Inten    --      0.1297                 5.1845                 0.1933

                     16                     17                     18
                      A                      A                      A
 Frequencies --    204.0425               207.8351               239.2204
 Red. masses --      4.4969                 5.5305                 8.7221
 Frc consts  --      0.1103                 0.1408                 0.2941
 IR Inten    --      0.0439                 0.4029                 0.9819

                     19                     20                     21
                      A                      A                      A
 Frequencies --    254.0307               283.8783               292.8794
 Red. masses --      5.7113                 6.1121                 3.4141
 Frc consts  --      0.2172                 0.2902                 0.1725
 IR Inten    --      1.3788                 1.7997                 6.3746

                     22                     23                     24
                      A                      A                      A
 Frequencies --    305.5072               347.8654               369.3456
 Red. masses --      3.4595                 2.1780                 5.9976
 Frc consts  --      0.1902                 0.1553                 0.4821
 IR Inten    --      0.8282                 0.0978                 1.7898

                     25                     26                     27
                      A                      A                      A
 Frequencies --    390.3124               404.4352               413.2638
 Red. masses --      8.7587                 5.0422                 6.6294
 Frc consts  --      0.7862                 0.4859                 0.6671
 IR Inten    --      5.9906                 0.3097                 4.6785

                     28                     29                     30
                      A                      A                      A
 Frequencies --    417.2470               430.8674               449.0017
 Red. masses --      4.7412                 6.4827                 3.2039
 Frc consts  --      0.4863                 0.7091                 0.3806
 IR Inten    --      5.9880                 1.7797                 0.3954

                     31                     32                     33
                      A                      A                      A
 Frequencies --    454.7219               481.8236               518.5112
 Red. masses --      4.2905                 3.6784                 3.8747
 Frc consts  --      0.5227                 0.5031                 0.6138
 IR Inten    --      0.1250                 2.5920                 1.2887

                     34                     35                     36
                      A                      A                      A
 Frequencies --    534.6000               542.8943               546.1764
 Red. masses --      4.1418                 3.8600                 3.9610
 Frc consts  --      0.6974                 0.6703                 0.6962
 IR Inten    --      4.1141                 3.9306                 0.0700

                     37                     38                     39
                      A                      A                      A
 Frequencies --    549.1843               552.9701               597.0739
 Red. masses --      5.1632                 5.3680                 5.4243
 Frc consts  --      0.9175                 0.9671                 1.1393
 IR Inten    --      0.4311                 0.6111                 1.7724

                     40                     41                     42
                      A                      A                      A
 Frequencies --    604.9606               687.7087               694.4306
 Red. masses --      3.4305                 4.1985                 4.2681
 Frc consts  --      0.7397                 1.1699                 1.2127
 IR Inten    --      1.4183                 4.9834                 8.2354

                     43                     44                     45
                      A                      A                      A
 Frequencies --    746.1387               756.5655               793.0530
 Red. masses --      2.8458                 2.6675                 1.6442
 Frc consts  --      0.9334                 0.8996                 0.6093
 IR Inten    --      8.6059                16.0462                26.9046

                     46                     47                     48
                      A                      A                      A
 Frequencies --    796.3368               797.8984               810.2483
 Red. masses --      1.7314                 2.0921                 5.3219
 Frc consts  --      0.6469                 0.7847                 2.0585
 IR Inten    --     25.5107                 9.2591                51.1730

                     49                     50                     51
                      A                      A                      A
 Frequencies --    813.2864               863.8882               873.2109
 Red. masses --      7.1402                 1.7756                 1.7393
 Frc consts  --      2.7826                 0.7808                 0.7814
 IR Inten    --     60.5781                 7.1079                 8.8277

                     52                     53                     54
                      A                      A                      A
 Frequencies --    890.3049               894.5243               912.6487
 Red. masses --      4.4423                 4.6874                 2.3179
 Frc consts  --      2.0746                 2.2098                 1.1375
 IR Inten    --     20.5442                15.3593                 0.8590

                     55                     56                     57
                      A                      A                      A
 Frequencies --    917.3156               917.4964               928.7435
 Red. masses --      1.3666                 1.3667                 1.9319
 Frc consts  --      0.6776                 0.6779                 0.9818
 IR Inten    --      0.0117                 0.0045                 5.5000

                     58                     59                     60
                      A                      A                      A
 Frequencies --    962.1077               969.3161               995.7264
 Red. masses --      1.6601                 1.6202                 1.9666
 Frc consts  --      0.9054                 0.8969                 1.1488
 IR Inten    --      9.3762                 2.4799                 7.3308

                     61                     62                     63
                      A                      A                      A
 Frequencies --   1002.2613              1002.6131              1036.5144
 Red. masses --      1.3288                 1.3295                 3.8469
 Frc consts  --      0.7865                 0.7874                 2.4351
 IR Inten    --      0.2686                 0.4694                27.6856

                     64                     65                     66
                      A                      A                      A
 Frequencies --   1064.7121              1083.5154              1090.4737
 Red. masses --      1.2675                 2.4606                 1.4086
 Frc consts  --      0.8466                 1.7020                 0.9869
 IR Inten    --      4.0707                 3.5818                 2.2078

                     67                     68                     69
                      A                      A                      A
 Frequencies --   1095.3648              1097.2372              1138.8402
 Red. masses --      1.7036                 1.7634                 8.2697
 Frc consts  --      1.2043                 1.2509                 6.3193
 IR Inten    --      2.7943                 3.7266                14.5342

                     70                     71                     72
                      A                      A                      A
 Frequencies --   1140.5397              1142.8906              1148.9856
 Red. masses --      4.6700                 2.7390                 2.4410
 Frc consts  --      3.5792                 2.1079                 1.8986
 IR Inten    --     11.4725                11.3841                 3.6466

                     73                     74                     75
                      A                      A                      A
 Frequencies --   1166.4514              1167.8742              1168.3012
 Red. masses --      1.7629                 1.1407                 1.1272
 Frc consts  --      1.4132                 0.9167                 0.9065
 IR Inten    --      2.1932                 0.4403                 0.6600

                     76                     77                     78
                      A                      A                      A
 Frequencies --   1216.3339              1216.8837              1235.6462
 Red. masses --      1.7053                 1.7209                 1.4446
 Frc consts  --      1.4865                 1.5015                 1.2995
 IR Inten    --     16.6311                16.5010                 0.8210

                     79                     80                     81
                      A                      A                      A
 Frequencies --   1247.1337              1254.3032              1261.2132
 Red. masses --      1.3863                 1.4454                 2.0925
 Frc consts  --      1.2704                 1.3398                 1.9610
 IR Inten    --     17.0222                 7.8487                 1.5104

                     82                     83                     84
                      A                      A                      A
 Frequencies --   1262.8934              1296.9559              1303.8568
 Red. masses --      2.0732                 1.3144                 1.2222
 Frc consts  --      1.9482                 1.3026                 1.2242
 IR Inten    --      1.3184                 8.3494                12.6503

                     85                     86                     87
                      A                      A                      A
 Frequencies --   1313.5095              1345.6516              1359.1776
 Red. masses --      1.2269                 1.5770                 1.4877
 Frc consts  --      1.2472                 1.6825                 1.6193
 IR Inten    --      6.0023                 4.0843                 1.3654

                     88                     89                     90
                      A                      A                      A
 Frequencies --   1374.5069              1376.9561              1377.5961
 Red. masses --      2.6349                 3.1760                 1.6866
 Frc consts  --      2.9330                 3.5479                 1.8858
 IR Inten    --      7.7753                 7.2582                14.4193

                     91                     92                     93
                      A                      A                      A
 Frequencies --   1388.1407              1390.0325              1395.4220
 Red. masses --      1.8685                 2.9737                 1.8838
 Frc consts  --      2.1213                 3.3852                 2.1612
 IR Inten    --      4.8455                 3.4904                 9.8479

                     94                     95                     96
                      A                      A                      A
 Frequencies --   1399.0362              1452.0513              1456.9455
 Red. masses --      1.7396                 1.0954                 1.0957
 Frc consts  --      2.0061                 1.3607                 1.3703
 IR Inten    --      1.8320                 4.0265                 6.1063

                     97                     98                     99
                      A                      A                      A
 Frequencies --   1460.0886              1474.9258              1476.9966
 Red. masses --      1.0996                 1.1567                 2.7268
 Frc consts  --      1.3812                 1.4825                 3.5048
 IR Inten    --      7.7890                 3.4997                54.0107

                    100                    101                    102
                      A                      A                      A
 Frequencies --   1478.4424              1497.0539              1499.9532
 Red. masses --      2.5475                 4.3445                 4.4160
 Frc consts  --      3.2808                 5.7368                 5.8538
 IR Inten    --     68.4025                12.9473                 6.4565

                    103                    104                    105
                      A                      A                      A
 Frequencies --   1645.1348              1648.7192              1676.3010
 Red. masses --      7.2333                 7.3342                 8.1550
 Frc consts  --     11.5343                11.7462                13.5013
 IR Inten    --     40.6747                43.2909                25.4423

                    106                    107                    108
                      A                      A                      A
 Frequencies --   1678.8891              1757.7140              1777.0629
 Red. masses --      8.2588                 9.9728                10.1010
 Frc consts  --     13.7155                18.1537                18.7940
 IR Inten    --     24.7678                94.9108                51.7966

                    109                    110                    111
                      A                      A                      A
 Frequencies --   3022.6134              3038.4990              3043.9528
 Red. masses --      1.0829                 1.0778                 1.0705
 Frc consts  --      5.8289                 5.8629                 5.8443
 IR Inten    --      1.7401                 1.0210                18.0398

                    112                    113                    114
                      A                      A                      A
 Frequencies --   3050.1585              3052.2814              3056.7787
 Red. masses --      1.0689                 1.0645                 1.0639
 Frc consts  --      5.8594                 5.8429                 5.8569
 IR Inten    --     16.9851                30.9422                30.5352

                    115                    116                    117
                      A                      A                      A
 Frequencies --   3090.3994              3111.8282              3114.0979
 Red. masses --      1.0850                 1.1005                 1.0974
 Frc consts  --      6.1053                 6.2789                 6.2700
 IR Inten    --     26.6286                24.6828                 6.4024

                    118                    119                    120
                      A                      A                      A
 Frequencies --   3116.3249              3120.2868              3122.3290
 Red. masses --      1.0991                 1.0968                 1.0980
 Frc consts  --      6.2890                 6.2917                 6.3066
 IR Inten    --     46.5126                25.4447                35.7691

                    121                    122                    123
                      A                      A                      A
 Frequencies --   3221.6885              3221.9521              3243.5128
 Red. masses --      1.0892                 1.0891                 1.0944
 Frc consts  --      6.6608                 6.6614                 6.7836
 IR Inten    --      2.4838                 2.4099                 0.0622

                    124                    125                    126
                      A                      A                      A
 Frequencies --   3243.7564              3248.1336              3248.2486
 Red. masses --      1.0945                 1.0986                 1.0985
 Frc consts  --      6.7850                 6.8287                 6.8290
 IR Inten    --      0.0724                 0.8755                 0.6484

 - Thermochemistry -
 -------------------
 Temperature   298.150 Kelvin.  Pressure   1.00000 Atm.
 Atom     1 has atomic number  6 and mass  12.00000

 Molecular mass:   426.02241 amu.
 Principal axes and moments of inertia in atomic units:
                           1         2         3
     Eigenvalues --  8931.13586********************
           X            1.00000   0.00208   0.00200
           Y           -0.00203   0.99965  -0.02651
           Z           -0.00205   0.02650   0.99965
 This molecule is an asymmetric top.
 Rotational symmetry number  1.
 Warning -- assumption of classical behavior for rotation
           may cause significant error
 Rotational temperatures (Kelvin)      0.00970     0.00470     0.00371
 Rotational constants (GHZ):           0.20207     0.09801     0.07739
    2 imaginary frequencies ignored.
 Zero-point vibrational energy     888508.6 (Joules/Mol)
                                  212.35865 (Kcal/Mol)
 Warning -- explicit consideration of  38 degrees of freedom as
           vibrations may cause significant error
 Vibrational temperatures:     14.41    23.99    50.43    60.75    63.76
          (Kelvin)             86.07   107.54   139.01   190.58   210.76
                              248.30   273.14   293.04   293.57   299.03
                              344.18   365.49   408.44   421.39   439.56
                              500.50   531.41   561.57   581.89   594.59
                              600.33   619.92   646.01   654.24   693.24
                              746.02   769.17   781.10   785.83   790.15
                              795.60   859.06   870.40   989.46   999.13
                             1073.53  1088.53  1141.03  1145.75  1148.00
                             1165.77  1170.14  1242.94  1256.36  1280.95
                             1287.02  1313.10  1319.81  1320.07  1336.25
                             1384.26  1394.63  1432.63  1442.03  1442.54
                             1491.31  1531.88  1558.94  1568.95  1575.99
                             1578.68  1638.54  1640.98  1644.36  1653.13
                             1678.26  1680.31  1680.92  1750.03  1750.82
                             1777.82  1794.35  1804.66  1814.60  1817.02
                             1866.03  1875.96  1889.85  1936.09  1955.55
                             1977.61  1981.13  1982.05  1997.22  1999.95
                             2007.70  2012.90  2089.18  2096.22  2100.74
                             2122.09  2125.07  2127.15  2153.93  2158.10
                             2366.98  2372.14  2411.82  2415.55  2528.96
                             2556.80  4348.87  4371.72  4379.57  4388.50
                             4391.55  4398.02  4446.40  4477.23  4480.49
                             4483.70  4489.40  4492.34  4635.29  4635.67
                             4666.69  4667.04  4673.34  4673.51

 Zero-point correction=                           0.338415 (Hartree/Particle)
 Thermal correction to Energy=                    0.360869
 Thermal correction to Enthalpy=                  0.361813
 Thermal correction to Gibbs Free Energy=         0.282759
 Sum of electronic and zero-point Energies=          -2720.112138
 Sum of electronic and thermal Energies=             -2720.089685
 Sum of electronic and thermal Enthalpies=           -2720.088740
 Sum of electronic and thermal Free Energies=        -2720.167795

                     E (Thermal)             CV                S
                      KCal/Mol        Cal/Mol-Kelvin    Cal/Mol-Kelvin
 Total                  226.449             86.213            166.384
 Electronic               0.000              0.000              0.000
 Translational            0.889              2.981             44.038
 Rotational               0.889              2.981             36.593
 Vibrational            224.671             80.252             85.753
 Vibration     1          0.593              1.987              8.008
 Vibration     2          0.593              1.986              6.995
 Vibration     3          0.594              1.982              5.521
 Vibration     4          0.595              1.980              5.152
 Vibration     5          0.595              1.980              5.056
 Vibration     6          0.597              1.973              4.463
 Vibration     7          0.599              1.966              4.024
 Vibration     8          0.603              1.952              3.522
 Vibration     9          0.613              1.921              2.910
 Vibration    10          0.617              1.906              2.717
 Vibration    11          0.626              1.876              2.407
 Vibration    12          0.633              1.854              2.229
 Vibration    13          0.639              1.835              2.100
 Vibration    14          0.640              1.834              2.096
 Vibration    15          0.641              1.829              2.063
 Vibration    16          0.657              1.780              1.809
 Vibration    17          0.665              1.756              1.702
 Vibration    18          0.682              1.704              1.510
 Vibration    19          0.688              1.687              1.457
 Vibration    20          0.696              1.663              1.387
 Vibration    21          0.725              1.580              1.176
 Vibration    22          0.742              1.535              1.083
 Vibration    23          0.758              1.491              0.999
 Vibration    24          0.770              1.461              0.946
 Vibration    25          0.777              1.441              0.915
 Vibration    26          0.780              1.433              0.901
 Vibration    27          0.792              1.403              0.856
 Vibration    28          0.808              1.363              0.799
 Vibration    29          0.813              1.350              0.782
 Vibration    30          0.838              1.290              0.705
 Vibration    31          0.874              1.209              0.613
 Vibration    32          0.890              1.173              0.577
 Vibration    33          0.898              1.155              0.559
 Vibration    34          0.901              1.148              0.552
 Vibration    35          0.904              1.141              0.546
 Vibration    36          0.908              1.133              0.538
 Vibration    37          0.955              1.038              0.455
 Vibration    38          0.964              1.021              0.441

 Normal termination of Gaussian 16 at Thu Dec  8 09:42:54 2022.
