 Gaussian 16, Revision A.03,
 Gaussian 16:  ES64L-G16RevA.03 25-Dec-2016

 ----------------------------------------------------------------------
 #p pop=(regular,nbo,savenbos) freq=noraman def2svp empiricaldispersion
 =gd3bj output=wfx pbe1pbe
 ----------------------------------------------------------------------

 ------
 04_lig
 ------
 Symbolic Z-matrix:
 Charge =  0 Multiplicity = 1

                         Standard orientation:
 ---------------------------------------------------------------------
 Center     Atomic      Atomic             Coordinates (Angstroms)
 Number     Number       Type             X           Y           Z
 ---------------------------------------------------------------------
      1          6           0        0.712739    1.849655   -0.553848
      2          1           0        0.399310    1.860799   -1.615855
      3          6           0       -0.588875    1.847292    0.273252
      4          1           0       -0.298896    1.790207    1.341285
      5          6           0       -1.367827    3.139725    0.023251
      6          6           0       -0.529513    4.380666    0.293454
      7          6           0        0.756169    4.361466   -0.521325
      8          6           0        1.549743    3.086763   -0.263179
      9          7           0       -1.362710    0.665876   -0.062302
     10          6           0       -2.472299    0.437239    0.518302
     11          6           0       -3.308881   -0.726477    0.232600
     12          6           0       -3.112752   -1.509744   -0.915640
     13          6           0       -3.908137   -2.626834   -1.135134
     14          6           0       -4.906048   -2.972409   -0.220888
     15          6           0       -5.117405   -2.189059    0.912719
     16          6           0       -4.326283   -1.065713    1.133605
     17          7           0        1.382125    0.573440   -0.397013
     18          6           0        2.597417    0.446881   -0.038072
     19          6           0        3.298952   -0.833974    0.026061
     20          6           0        2.935595   -1.910877   -0.795696
     21          6           0        3.615004   -3.118563   -0.694614
     22          6           0        4.657802   -3.263539    0.221078
     23          6           0        5.040698   -2.188682    1.023409
     24          6           0        4.373257   -0.973445    0.914964
     25          1           0       -2.275468    3.148009    0.646052
     26          1           0       -1.707394    3.130727   -1.027175
     27          1           0       -0.280903    4.428655    1.368692
     28          1           0       -1.116368    5.285158    0.069384
     29          1           0        1.375825    5.242073   -0.291386
     30          1           0        0.510392    4.423900   -1.595751
     31          1           0        1.880066    3.068831    0.791418
     32          1           0        2.459575    3.075053   -0.884573
     33          1           0       -2.854956    1.117271    1.301963
     34          1           0       -2.349584   -1.228295   -1.648481
     35          1           0       -3.749619   -3.232318   -2.030252
     36          1           0       -5.526340   -3.854510   -0.397439
     37          1           0       -5.899799   -2.455532    1.626750
     38          1           0       -4.484844   -0.450287    2.023613
     39          1           0        3.188533    1.332869    0.243192
     40          1           0        2.149629   -1.784069   -1.547281
     41          1           0        3.330077   -3.952666   -1.339246
     42          1           0        5.184289   -4.217634    0.301251
     43          1           0        5.863591   -2.298680    1.733078
     44          1           0        4.670846   -0.126996    1.540183
 ---------------------------------------------------------------------

 SCF Done:  E(RPBE1PBE) =  -883.228812481     A.U. after   14 cycles

 The electronic state is 1-A.
 Alpha  occ. eigenvalues --  -14.37465 -14.37138 -10.26990 -10.26656 -10.26065
 Alpha  occ. eigenvalues --  -10.25538 -10.24222 -10.24182 -10.24086 -10.24048
 Alpha  occ. eigenvalues --  -10.24000 -10.23976 -10.23900 -10.23824 -10.23770
 Alpha  occ. eigenvalues --  -10.23622 -10.23611 -10.23515 -10.23320 -10.23273
 Alpha  occ. eigenvalues --  -10.23210 -10.22956  -0.94767  -0.92605  -0.87784
 Alpha  occ. eigenvalues --   -0.87343  -0.84490  -0.78634  -0.78036  -0.76311
 Alpha  occ. eigenvalues --   -0.76176  -0.75195  -0.74235  -0.66660  -0.65857
 Alpha  occ. eigenvalues --   -0.62722  -0.62357  -0.61742  -0.60726  -0.58256
 Alpha  occ. eigenvalues --   -0.56709  -0.55939  -0.52302  -0.52170  -0.51667
 Alpha  occ. eigenvalues --   -0.49869  -0.47601  -0.47270  -0.46730  -0.46325
 Alpha  occ. eigenvalues --   -0.45603  -0.45194  -0.44317  -0.43576  -0.43291
 Alpha  occ. eigenvalues --   -0.43254  -0.42799  -0.41116  -0.39975  -0.39701
 Alpha  occ. eigenvalues --   -0.38881  -0.37822  -0.36524  -0.36163  -0.35997
 Alpha  occ. eigenvalues --   -0.35565  -0.35398  -0.34956  -0.33799  -0.33261
 Alpha  occ. eigenvalues --   -0.32011  -0.31373  -0.26832  -0.26702  -0.25481
 Alpha  occ. eigenvalues --   -0.25248  -0.24790  -0.23379
 Alpha virt. eigenvalues --   -0.04207  -0.03444  -0.00258  -0.00149   0.04755
 Alpha virt. eigenvalues --    0.05126   0.06471   0.07461   0.07681   0.07810
 Alpha virt. eigenvalues --    0.08938   0.10183   0.11264   0.11617   0.12934

 Mulliken charges:
               1
     1  C    0.055061
     2  H    0.030760
     3  C   -0.030016
     4  H    0.025348
     5  C   -0.018235
     6  C   -0.039708
     7  C   -0.013500
     8  C   -0.062621
     9  N   -0.163989
    10  C    0.039761
    11  C   -0.006824
    12  C    0.010265
    13  C   -0.021354
    14  C   -0.012476
    15  C   -0.015790
    16  C   -0.026808
    17  N   -0.178723
    18  C    0.002907
    19  C    0.002564
    20  C    0.013414
    21  C   -0.023940
    22  C   -0.013770
    23  C   -0.016962
    24  C   -0.022780
    25  H    0.037711
    26  H    0.033404
    27  H    0.027615
    28  H    0.037328
    29  H    0.032740
    30  H    0.028023
    31  H    0.034495
    32  H    0.048561
    33  H   -0.008008
    34  H    0.030400
    35  H    0.022739
    36  H    0.023756
    37  H    0.021107
    38  H    0.012556
    39  H    0.001422
    40  H    0.026628
    41  H    0.022438
    42  H    0.022924
    43  H    0.020486
    44  H    0.011092
 Sum of Mulliken charges =  -0.00000

 Dipole moment (field-independent basis, Debye):
    X=             -0.0931    Y=              1.2845    Z=              0.8520  Tot=              1.5442
 Quadrupole moment (field-independent basis, Debye-Ang):
   XX=           -120.5166   YY=           -118.1788   ZZ=           -126.5795
   XY=              1.7733   XZ=              0.0312   YZ=              4.0234

  Exact polarizability: 267.495   9.203 272.009   6.137  17.226 172.439
 Approx polarizability: 357.005  17.133 362.349  11.980  33.390 291.015

 Summary of Natural Population Analysis:

                                       Natural Population
                Natural  -----------------------------------------------
    Atom  No    Charge         Core      Valence    Rydberg      Total
 -----------------------------------------------------------------------
      C    1   -0.05729      1.99895     4.03311    0.02524     6.05729
      H    2    0.24759      0.00000     0.74751    0.00490     0.75241
      C    3   -0.05545      1.99894     4.03321    0.02329     6.05545
      H    4    0.22762      0.00000     0.76665    0.00573     0.77238
      C    5   -0.45905      1.99909     4.44482    0.01513     6.45905
      C    6   -0.44492      1.99911     4.43191    0.01389     6.44492
      C    7   -0.43952      1.99912     4.42641    0.01399     6.43952
      C    8   -0.48313      1.99910     4.46995    0.01408     6.48313
      N    9   -0.46508      1.99925     5.44545    0.02037     7.46508
      C   10    0.12413      1.99907     3.85047    0.02633     5.87587
      C   11   -0.10802      1.99886     4.09207    0.01710     6.10802
      C   12   -0.18521      1.99892     4.17037    0.01592     6.18521
      C   13   -0.22721      1.99895     4.21327    0.01499     6.22721
      C   14   -0.21936      1.99895     4.20536    0.01504     6.21936
      C   15   -0.22956      1.99895     4.21540    0.01521     6.22956
      C   16   -0.20538      1.99892     4.19153    0.01493     6.20538
      N   17   -0.45955      1.99924     5.44017    0.02015     7.45955
      C   18    0.10968      1.99904     3.86516    0.02612     5.89032
      C   19   -0.10307      1.99886     4.08701    0.01720     6.10307
      C   20   -0.18898      1.99892     4.17413    0.01593     6.18898
      C   21   -0.22692      1.99894     4.21296    0.01502     6.22692
      C   22   -0.22172      1.99895     4.20772    0.01504     6.22172
      C   23   -0.22926      1.99895     4.21511    0.01521     6.22926
      C   24   -0.20712      1.99892     4.19334    0.01486     6.20712
      H   25    0.23520      0.00000     0.76178    0.00302     0.76480
      H   26    0.22923      0.00000     0.76591    0.00487     0.77077
      H   27    0.22030      0.00000     0.77575    0.00395     0.77970
      H   28    0.23580      0.00000     0.76089    0.00331     0.76420
      H   29    0.23397      0.00000     0.76266    0.00337     0.76603
      H   30    0.22146      0.00000     0.77457    0.00397     0.77854
      H   31    0.22443      0.00000     0.77141    0.00416     0.77557
      H   32    0.24055      0.00000     0.75601    0.00344     0.75945
      H   33    0.16155      0.00000     0.83242    0.00602     0.83845
      H   34    0.25002      0.00000     0.74603    0.00396     0.74998
      H   35    0.23148      0.00000     0.76579    0.00272     0.76852
      H   36    0.23027      0.00000     0.76700    0.00273     0.76973
      H   37    0.23147      0.00000     0.76580    0.00273     0.76853
      H   38    0.22862      0.00000     0.76831    0.00307     0.77138
      H   39    0.16435      0.00000     0.82915    0.00650     0.83565
      H   40    0.24703      0.00000     0.74912    0.00385     0.75297
      H   41    0.23134      0.00000     0.76593    0.00273     0.76866
      H   42    0.22990      0.00000     0.76736    0.00274     0.77010
      H   43    0.23092      0.00000     0.76634    0.00274     0.76908
      H   44    0.22889      0.00000     0.76810    0.00301     0.77111
 =======================================================================
   * Total *   -0.00000     43.97801   111.55344    0.46856   156.00000

 ******    1 imaginary frequencies (negative Signs) ******

                      1                      2                      3
                      A                      A                      A
 Frequencies --    -55.4858                17.3482                21.2980
 Red. masses --      3.2123                 4.0565                 4.5781
 Frc consts  --      0.0058                 0.0007                 0.0012
 IR Inten    --      2.1157                 1.5356                 0.5249

                      4                      5                      6
                      A                      A                      A
 Frequencies --     47.3030                62.0177                64.9246
 Red. masses --      3.8020                 4.0682                 4.1345
 Frc consts  --      0.0050                 0.0092                 0.0103
 IR Inten    --      0.2680                 0.6621                 0.2667

                      7                      8                      9
                      A                      A                      A
 Frequencies --     87.3203                90.2277               127.1757
 Red. masses --      3.6500                 3.9054                 3.5297
 Frc consts  --      0.0164                 0.0187                 0.0336
 IR Inten    --      3.2272                 3.2874                 0.8617

                     10                     11                     12
                      A                      A                      A
 Frequencies --    173.1596               181.8978               192.5361
 Red. masses --      4.3488                 3.8786                 2.5046
 Frc consts  --      0.0768                 0.0756                 0.0547
 IR Inten    --      0.5618                 0.9891                 9.2531

                     13                     14                     15
                      A                      A                      A
 Frequencies --    228.3576               257.6449               281.3112
 Red. masses --      5.4193                 3.8754                 2.7760
 Frc consts  --      0.1665                 0.1516                 0.1294
 IR Inten    --      0.6032                 0.4239                 2.4150

                     16                     17                     18
                      A                      A                      A
 Frequencies --    323.2574               368.1112               394.7709
 Red. masses --      2.1241                 3.0599                 3.3684
 Frc consts  --      0.1308                 0.2443                 0.3093
 IR Inten    --      0.0372                 0.6843                 5.9516

                     19                     20                     21
                      A                      A                      A
 Frequencies --    416.8352               418.9853               446.6770
 Red. masses --      2.8666                 2.8665                 3.1673
 Frc consts  --      0.2935                 0.2965                 0.3723
 IR Inten    --      0.2563                 0.1695                 0.7193

                     22                     23                     24
                      A                      A                      A
 Frequencies --    447.6119               462.8837               478.1473
 Red. masses --      3.7085                 3.9031                 2.9193
 Frc consts  --      0.4378                 0.4927                 0.3932
 IR Inten    --     10.0434                 2.2181                10.9319

                     25                     26                     27
                      A                      A                      A
 Frequencies --    524.5075               531.0593               557.9650
 Red. masses --      2.8837                 3.2313                 4.7612
 Frc consts  --      0.4674                 0.5369                 0.8733
 IR Inten    --      6.8709                 1.1428                 1.7279

                     28                     29                     30
                      A                      A                      A
 Frequencies --    579.5560               629.7186               630.0029
 Red. masses --      2.9852                 6.3532                 6.3563
 Frc consts  --      0.5908                 1.4843                 1.4864
 IR Inten    --      0.5931                 0.0389                 0.1307

                     31                     32                     33
                      A                      A                      A
 Frequencies --    675.1884               687.6396               719.3352
 Red. masses --      4.4715                 4.0151                 1.6025
 Frc consts  --      1.2010                 1.1186                 0.4885
 IR Inten    --      8.9311                 8.0467                36.9709

                     34                     35                     36
                      A                      A                      A
 Frequencies --    719.9698               778.9693               781.3749
 Red. masses --      1.6053                 1.9581                 1.9462
 Frc consts  --      0.4903                 0.7000                 0.7001
 IR Inten    --     40.1728                26.3069                19.2892

                     37                     38                     39
                      A                      A                      A
 Frequencies --    797.8854               863.5173               867.9650
 Red. masses --      1.8694                 1.7767                 1.2625
 Frc consts  --      0.7012                 0.7806                 0.5604
 IR Inten    --      0.4167                 4.9004                 1.1354

                     40                     41                     42
                      A                      A                      A
 Frequencies --    869.2743               869.9074               881.5216
 Red. masses --      1.6591                 1.2601                 3.4877
 Frc consts  --      0.7386                 0.5618                 1.5968
 IR Inten    --      8.4579                 0.4780                 1.6188

                     43                     44                     45
                      A                      A                      A
 Frequencies --    886.9484               918.0585               932.4374
 Red. masses --      3.5257                 2.1683                 1.7655
 Frc consts  --      1.6341                 1.0767                 0.9044
 IR Inten    --     12.7659                 2.2896                 3.2146

                     46                     47                     48
                      A                      A                      A
 Frequencies --    947.0026               949.9200               984.3317
 Red. masses --      1.4252                 1.4620                 1.9568
 Frc consts  --      0.7530                 0.7773                 1.1171
 IR Inten    --      2.0060                 1.6498                11.0902

                     49                     50                     51
                      A                      A                      A
 Frequencies --    991.0613              1006.2819              1007.3516
 Red. masses --      1.6748                 1.6559                 1.4278
 Frc consts  --      0.9692                 0.9879                 0.8537
 IR Inten    --      3.4882                 1.7547                 1.5966

                     52                     53                     54
                      A                      A                      A
 Frequencies --   1010.7526              1017.6987              1018.5730
 Red. masses --      1.4074                 4.6885                 4.3555
 Frc consts  --      0.8471                 2.8610                 2.6624
 IR Inten    --      0.9298                 0.3416                 0.2723

                     55                     56                     57
                      A                      A                      A
 Frequencies --   1029.5296              1032.8853              1055.9858
 Red. masses --      1.3730                 1.3611                 2.0208
 Frc consts  --      0.8574                 0.8555                 1.3277
 IR Inten    --      0.5348                 0.8049                 3.4361

                     58                     59                     60
                      A                      A                      A
 Frequencies --   1057.0701              1061.3220              1070.2078
 Red. masses --      2.0200                 1.2639                 3.5279
 Frc consts  --      1.3298                 0.8388                 2.3807
 IR Inten    --      3.6167                 1.8262                42.6002

                     61                     62                     63
                      A                      A                      A
 Frequencies --   1086.1330              1098.8624              1109.7787
 Red. masses --      1.3608                 1.9169                 1.4558
 Frc consts  --      0.9458                 1.3638                 1.0564
 IR Inten    --      0.3746                 1.9761                 5.3620

                     64                     65                     66
                      A                      A                      A
 Frequencies --   1115.3551              1131.8919              1147.0157
 Red. masses --      1.9545                 2.0031                 2.5265
 Frc consts  --      1.4326                 1.5120                 1.9584
 IR Inten    --     19.3814                 0.2154                 0.0422

                     67                     68                     69
                      A                      A                      A
 Frequencies --   1164.1639              1170.2913              1170.4506
 Red. masses --      1.9539                 1.0791                 1.0793
 Frc consts  --      1.5602                 0.8707                 0.8712
 IR Inten    --      7.8274                 0.1507                 0.1374

                     70                     71                     72
                      A                      A                      A
 Frequencies --   1182.1254              1183.7123              1233.3274
 Red. masses --      1.1051                 1.1019                 1.4465
 Frc consts  --      0.9099                 0.9096                 1.2964
 IR Inten    --      5.1953                 3.3221                 5.1877

                     73                     74                     75
                      A                      A                      A
 Frequencies --   1250.7110              1257.1360              1268.2690
 Red. masses --      1.3844                 1.3281                 1.9161
 Frc consts  --      1.2759                 1.2366                 1.8159
 IR Inten    --      7.5212                14.1435                 6.8007

                     76                     77                     78
                      A                      A                      A
 Frequencies --   1270.3662              1292.6811              1307.8016
 Red. masses --      1.9399                 1.2703                 1.2527
 Frc consts  --      1.8445                 1.2506                 1.2624
 IR Inten    --      7.4703                 3.5057                17.1346

                     79                     80                     81
                      A                      A                      A
 Frequencies --   1318.0606              1326.1408              1327.5493
 Red. masses --      1.2136                 1.4513                 1.4353
 Frc consts  --      1.2423                 1.5038                 1.4904
 IR Inten    --     14.1092                21.4957                 5.2800

                     82                     83                     84
                      A                      A                      A
 Frequencies --   1351.4634              1360.0973              1372.7364
 Red. masses --      1.5455                 1.4741                 1.5466
 Frc consts  --      1.6631                 1.6066                 1.7171
 IR Inten    --      7.5788                 4.8269                 8.6887

                     85                     86                     87
                      A                      A                      A
 Frequencies --   1387.8959              1389.2038              1396.8569
 Red. masses --      1.8602                 1.7920                 2.2768
 Frc consts  --      2.1112                 2.0376                 2.6174
 IR Inten    --     12.0076                 3.9310                 9.2527

                     88                     89                     90
                      A                      A                      A
 Frequencies --   1401.0434              1414.4480              1417.4858
 Red. masses --      3.1618                 2.7562                 2.5584
 Frc consts  --      3.6567                 3.2489                 3.0287
 IR Inten    --      8.1600                 2.5217                10.1108

                     91                     92                     93
                      A                      A                      A
 Frequencies --   1452.4394              1456.2185              1459.9333
 Red. masses --      1.1025                 1.0959                 1.0976
 Frc consts  --      1.3703                 1.3693                 1.3783
 IR Inten    --      1.5780                 5.9471                10.5559

                     94                     95                     96
                      A                      A                      A
 Frequencies --   1475.0207              1491.6003              1492.0044
 Red. masses --      1.1144                 2.5255                 2.5384
 Frc consts  --      1.4285                 3.3106                 3.3292
 IR Inten    --      2.2317                 5.4519                13.2567

                     97                     98                     99
                      A                      A                      A
 Frequencies --   1541.6440              1541.8284              1665.2500
 Red. masses --      2.8292                 2.8316                 6.4444
 Frc consts  --      3.9617                 3.9660                10.5290
 IR Inten    --      7.2592                 3.7422                 6.0429

                    100                    101                    102
                      A                      A                      A
 Frequencies --   1665.3730              1694.2589              1695.8573
 Red. masses --      6.4310                 6.5155                 6.5389
 Frc consts  --     10.5088                11.0193                11.0799
 IR Inten    --      2.7675                 1.5548                 0.7228

                    103                    104                    105
                      A                      A                      A
 Frequencies --   1755.3122              1759.6424              3011.0593
 Red. masses --      9.5496                 9.4450                 1.0828
 Frc consts  --     17.3359                17.2305                 5.7840
 IR Inten    --    177.9023                73.0514                 9.8914

                    106                    107                    108
                      A                      A                      A
 Frequencies --   3029.5801              3042.0867              3042.5508
 Red. masses --      1.0831                 1.0814                 1.0700
 Frc consts  --      5.8571                 5.8966                 5.8360
 IR Inten    --      8.4989                52.2036                32.3186

                    109                    110                    111
                      A                      A                      A
 Frequencies --   3049.7098              3054.8123              3058.6567
 Red. masses --      1.0681                 1.0643                 1.0640
 Frc consts  --      5.8531                 5.8516                 5.8650
 IR Inten    --     23.2113                26.7126                22.3716

                    112                    113                    114
                      A                      A                      A
 Frequencies --   3088.7193              3109.7288              3113.7949
 Red. masses --      1.0841                 1.1005                 1.0987
 Frc consts  --      6.0938                 6.2701                 6.2763
 IR Inten    --     43.8128                29.3214                46.1127

                    115                    116                    117
                      A                      A                      A
 Frequencies --   3118.1514              3124.0525              3197.6063
 Red. masses --      1.1039                 1.1038                 1.0877
 Frc consts  --      6.3239                 6.3469                 6.5528
 IR Inten    --     23.5036                29.0650                 2.3983

                    118                    119                    120
                      A                      A                      A
 Frequencies --   3197.7900              3200.9134              3201.6539
 Red. masses --      1.0878                 1.0904                 1.0900
 Frc consts  --      6.5540                 6.5823                 6.5833
 IR Inten    --      2.6135                 0.6918                 0.7650

                    121                    122                    123
                      A                      A                      A
 Frequencies --   3209.8932              3210.0086              3222.2112
 Red. masses --      1.0916                 1.0914                 1.0962
 Frc consts  --      6.6265                 6.6258                 6.7056
 IR Inten    --      1.3626                 2.6612                11.9941

                    124                    125                    126
                      A                      A                      A
 Frequencies --   3223.1517              3230.2143              3231.0555
 Red. masses --      1.0961                 1.1006                 1.1005
 Frc consts  --      6.7092                 6.7662                 6.7692
 IR Inten    --     13.1611                13.7261                13.5027

 - Thermochemistry -
 -------------------
 Temperature   298.150 Kelvin.  Pressure   1.00000 Atm.
 Atom     1 has atomic number  6 and mass  12.00000

 Molecular mass:   290.17830 amu.
 Principal axes and moments of inertia in atomic units:
                           1         2         3
     Eigenvalues --  6456.12101********************
           X            0.99999   0.00329   0.00003
           Y           -0.00329   0.99999   0.00351
           Z           -0.00002  -0.00351   0.99999
 This molecule is an asymmetric top.
 Rotational symmetry number  1.
 Warning -- assumption of classical behavior for rotation
           may cause significant error
 Rotational temperatures (Kelvin)      0.01342     0.00780     0.00523
 Rotational constants (GHZ):           0.27954     0.16252     0.10903
    1 imaginary frequencies ignored.
 Zero-point vibrational energy     990205.4 (Joules/Mol)
                                  236.66477 (Kcal/Mol)
 Warning -- explicit consideration of  27 degrees of freedom as
           vibrations may cause significant error
 Vibrational temperatures:     24.96    30.64    68.06    89.23    93.41
          (Kelvin)            125.63   129.82   182.98   249.14   261.71
                              277.02   328.56   370.69   404.74   465.10
                              529.63   567.99   599.73   602.83   642.67
                              644.01   665.99   687.95   754.65   764.08
                              802.79   833.85   906.02   906.43   971.45
                              989.36  1034.96  1035.88  1120.76  1124.22
                             1147.98  1242.41  1248.81  1250.69  1251.60
                             1268.31  1276.12  1320.88  1341.57  1362.53
                             1366.72  1416.23  1425.92  1447.82  1449.35
                             1454.25  1464.24  1465.50  1481.26  1486.09
                             1519.33  1520.89  1527.01  1539.79  1562.70
                             1581.02  1596.72  1604.75  1628.54  1650.30
                             1674.97  1683.79  1684.02  1700.81  1703.10
                             1774.48  1799.49  1808.74  1824.76  1827.77
                             1859.88  1881.63  1896.40  1908.02  1910.05
                             1944.45  1956.88  1975.06  1996.87  1998.75
                             2009.77  2015.79  2035.08  2039.45  2089.74
                             2095.17  2100.52  2122.23  2146.08  2146.66
                             2218.08  2218.35  2395.92  2396.10  2437.66
                             2439.96  2525.50  2531.73  4332.24  4358.89
                             4376.88  4377.55  4387.85  4395.19  4400.72
                             4443.98  4474.21  4480.06  4486.32  4494.81
                             4600.64  4600.91  4605.40  4606.47  4618.32
                             4618.49  4636.04  4637.40  4647.56  4648.77

 Zero-point correction=                           0.377149 (Hartree/Particle)
 Thermal correction to Energy=                    0.395509
 Thermal correction to Enthalpy=                  0.396454
 Thermal correction to Gibbs Free Energy=         0.327771
 Sum of electronic and zero-point Energies=           -882.851663
 Sum of electronic and thermal Energies=              -882.833303
 Sum of electronic and thermal Enthalpies=            -882.832359
 Sum of electronic and thermal Free Energies=         -882.901042

                     E (Thermal)             CV                S
                      KCal/Mol        Cal/Mol-Kelvin    Cal/Mol-Kelvin
 Total                  248.186             72.976            144.556
 Electronic               0.000              0.000              0.000
 Translational            0.889              2.981             42.894
 Rotational               0.889              2.981             35.427
 Vibrational            246.408             67.014             66.235
 Vibration     1          0.593              1.986              6.917
 Vibration     2          0.593              1.985              6.509
 Vibration     3          0.595              1.979              4.927
 Vibration     4          0.597              1.972              4.392
 Vibration     5          0.597              1.971              4.302
 Vibration     6          0.601              1.958              3.719
 Vibration     7          0.602              1.956              3.655
 Vibration     8          0.611              1.926              2.988
 Vibration     9          0.627              1.876              2.401
 Vibration    10          0.630              1.864              2.309
 Vibration    11          0.635              1.850              2.203
 Vibration    12          0.651              1.798              1.892
 Vibration    13          0.667              1.750              1.678
 Vibration    14          0.681              1.708              1.526
 Vibration    15          0.708              1.629              1.294
 Vibration    16          0.741              1.538              1.088
 Vibration    17          0.762              1.481              0.982
 Vibration    18          0.780              1.434              0.903
 Vibration    19          0.782              1.429              0.895
 Vibration    20          0.806              1.368              0.806
 Vibration    21          0.807              1.366              0.803
 Vibration    22          0.821              1.332              0.758
 Vibration    23          0.835              1.299              0.715
 Vibration    24          0.879              1.196              0.600
 Vibration    25          0.886              1.181              0.585
 Vibration    26          0.914              1.122              0.528
 Vibration    27          0.936              1.076              0.486

 Normal termination of Gaussian 16 at Thu Dec  8 09:30:02 2022.
