 Gaussian 16, Revision A.03,
 Gaussian 16:  ES64L-G16RevA.03 25-Dec-2016

 ----------------------------------------------------------------------
 #p pop=(regular,nbo,savenbos) freq=noraman def2svp empiricaldispersion
 =gd3bj output=wfx pbe1pbe
 ----------------------------------------------------------------------

 ------
 05_lig
 ------
 Symbolic Z-matrix:
 Charge =  0 Multiplicity = 1

                         Standard orientation:
 ---------------------------------------------------------------------
 Center     Atomic      Atomic             Coordinates (Angstroms)
 Number     Number       Type             X           Y           Z
 ---------------------------------------------------------------------
      1          6           0       -0.579466    2.463756    0.516016
      2          1           0       -0.103971    2.392652    1.513557
      3          6           0        0.579185    2.463745   -0.516115
      4          1           0        0.103715    2.392879   -1.513682
      5          6           0        1.401106    3.743998   -0.432062
      6          6           0        0.538365    4.993345   -0.536603
      7          6           0       -0.538363    4.993346    0.536854
      8          6           0       -1.401242    3.744113    0.432165
      9          7           0        1.331702    1.231753   -0.377077
     10          6           0        2.600357    1.182001   -0.308558
     11          6           0        3.340728   -0.080498   -0.223545
     12          6           0        2.827317   -1.265068   -0.770911
     13          6           0        3.534026   -2.451571   -0.648787
     14          6           0        4.767137   -2.467254    0.021351
     15          6           0        5.296419   -1.279943    0.548656
     16          6           0        4.589227   -0.094229    0.410930
     17          6           0        5.498207   -3.691846    0.151852
     18          7           0        6.094247   -4.680612    0.256775
     19          7           0       -1.332121    1.231908    0.376842
     20          6           0       -2.600775    1.182180    0.308418
     21          6           0       -3.341036   -0.080401    0.223449
     22          6           0       -2.827652   -1.264681    0.771485
     23          6           0       -3.534066   -2.451358    0.649438
     24          6           0       -4.766834   -2.467505   -0.021306
     25          6           0       -5.296100   -1.280476   -0.549281
     26          6           0       -4.589213   -0.094570   -0.411622
     27          6           0       -5.497617   -3.692283   -0.151775
     28          7           0       -6.093445   -4.681187   -0.256654
     29          1           0        2.163193    3.743293   -1.227555
     30          1           0        1.942080    3.758728    0.531253
     31          1           0        0.065672    5.033889   -1.533653
     32          1           0        1.171311    5.890322   -0.455559
     33          1           0       -1.171209    5.890409    0.455922
     34          1           0       -0.065674    5.033712    1.533918
     35          1           0       -1.942257    3.759043   -0.531130
     36          1           0       -2.163309    3.743358    1.227678
     37          1           0        3.211193    2.098771   -0.302694
     38          1           0        1.885155   -1.248881   -1.330183
     39          1           0        3.137653   -3.373763   -1.076465
     40          1           0        6.259510   -1.297826    1.060965
     41          1           0        5.000273    0.831674    0.821205
     42          1           0       -3.211622    2.098950    0.302685
     43          1           0       -1.885738   -1.248078    1.331145
     44          1           0       -3.137733   -3.373346    1.077602
     45          1           0       -6.258931   -1.298733   -1.062077
     46          1           0       -5.000238    0.831107   -0.822423
 ---------------------------------------------------------------------

 SCF Done:  E(RPBE1PBE) =  -1067.36649604     A.U. after   14 cycles

 The electronic state is 1-A.
 Alpha  occ. eigenvalues --  -14.39601 -14.39599 -14.39299 -14.39299 -10.29257
 Alpha  occ. eigenvalues --  -10.29257 -10.29038 -10.29037 -10.28114 -10.28105
 Alpha  occ. eigenvalues --  -10.27631 -10.27630 -10.27252 -10.27252 -10.27069
 Alpha  occ. eigenvalues --  -10.27068 -10.27030 -10.27029 -10.26773 -10.26772
 Alpha  occ. eigenvalues --  -10.26292 -10.26291 -10.24781 -10.24779 -10.24720
 Alpha  occ. eigenvalues --  -10.24707  -0.96941  -0.94936  -0.92990  -0.92926
 Alpha  occ. eigenvalues --   -0.90533  -0.90236  -0.86404  -0.82030  -0.81835
 Alpha  occ. eigenvalues --   -0.79315  -0.79306  -0.77477  -0.77272  -0.70949
 Alpha  occ. eigenvalues --   -0.69596  -0.66081  -0.65522  -0.65259  -0.64544
 Alpha  occ. eigenvalues --   -0.60557  -0.59015  -0.58636  -0.58162  -0.57639
 Alpha  occ. eigenvalues --   -0.54559  -0.52902  -0.51418  -0.50408  -0.49646
 Alpha  occ. eigenvalues --   -0.48875  -0.48550  -0.48160  -0.47510  -0.46958
 Alpha  occ. eigenvalues --   -0.46203  -0.46164  -0.44970  -0.43583  -0.43519
 Alpha  occ. eigenvalues --   -0.42958  -0.42885  -0.40992  -0.40737  -0.39141
 Alpha  occ. eigenvalues --   -0.39095  -0.38679  -0.38274  -0.37880  -0.37551
 Alpha  occ. eigenvalues --   -0.37369  -0.37259  -0.36581  -0.35280  -0.35042
 Alpha  occ. eigenvalues --   -0.35039  -0.34833  -0.34190  -0.32476  -0.29664
 Alpha  occ. eigenvalues --   -0.29639  -0.27598  -0.27594  -0.27055  -0.25244
 Alpha virt. eigenvalues --   -0.07674  -0.07312  -0.02974  -0.02959   0.00268
 Alpha virt. eigenvalues --    0.00878   0.04065   0.04070   0.05033   0.06060
 Alpha virt. eigenvalues --    0.06338   0.06437   0.07591   0.08186   0.08838

 Mulliken charges:
               1
     1  C    0.011466
     2  H    0.042863
     3  C    0.011471
     4  H    0.042865
     5  C   -0.066408
     6  C   -0.013008
     7  C   -0.013017
     8  C   -0.066393
     9  N   -0.167837
    10  C    0.009410
    11  C    0.017911
    12  C    0.010441
    13  C    0.034346
    14  C   -0.135586
    15  C    0.040928
    16  C   -0.019774
    17  C   -0.067008
    18  N   -0.004252
    19  N   -0.167855
    20  C    0.009396
    21  C    0.017904
    22  C    0.010467
    23  C    0.034347
    24  C   -0.135585
    25  C    0.040912
    26  C   -0.019744
    27  C   -0.067010
    28  N   -0.004261
    29  H    0.054790
    30  H    0.036369
    31  H    0.031188
    32  H    0.038208
    33  H    0.038209
    34  H    0.031189
    35  H    0.036369
    36  H    0.054783
    37  H    0.011080
    38  H    0.040281
    39  H    0.036232
    40  H    0.034466
    41  H    0.023887
    42  H    0.011111
    43  H    0.040262
    44  H    0.036232
    45  H    0.034472
    46  H    0.023882
 Sum of Mulliken charges =  -0.00000

 Dipole moment (field-independent basis, Debye):
    X=             -0.0005    Y=              9.9545    Z=              0.0001  Tot=              9.9545
 Quadrupole moment (field-independent basis, Debye-Ang):
   XX=           -183.5808   YY=           -179.0328   ZZ=           -149.8306
   XY=              0.0013   XZ=              1.8787   YZ=             -0.0003

  Exact polarizability: 327.248  -0.007 352.414  34.985  -0.006 151.077
 Approx polarizability: 449.787  -0.009 493.032  72.036  -0.014 245.389

 Summary of Natural Population Analysis:

                                       Natural Population
                Natural  -----------------------------------------------
    Atom  No    Charge         Core      Valence    Rydberg      Total
 -----------------------------------------------------------------------
      C    1   -0.05317      1.99895     4.03080    0.02342     6.05317
      H    2    0.24975      0.00000     0.74565    0.00459     0.75025
      C    3   -0.05316      1.99895     4.03080    0.02342     6.05316
      H    4    0.24975      0.00000     0.74566    0.00459     0.75025
      C    5   -0.48373      1.99910     4.47039    0.01423     6.48373
      C    6   -0.44051      1.99912     4.42722    0.01416     6.44051
      C    7   -0.44051      1.99912     4.42723    0.01416     6.44051
      C    8   -0.48372      1.99910     4.47039    0.01423     6.48372
      N    9   -0.45029      1.99924     5.43070    0.02035     7.45029
      C   10    0.10632      1.99904     3.86853    0.02611     5.89368
      C   11   -0.07984      1.99887     4.06376    0.01722     6.07984
      C   12   -0.18759      1.99891     4.17256    0.01611     6.18759
      C   13   -0.17770      1.99894     4.16389    0.01487     6.17770
      C   14   -0.17675      1.99878     4.16475    0.01322     6.17675
      C   15   -0.17808      1.99894     4.16418    0.01496     6.17808
      C   16   -0.20520      1.99891     4.19130    0.01499     6.20520
      C   17    0.30573      1.99921     3.65756    0.03749     5.69427
      N   18   -0.31832      1.99959     5.30186    0.01687     7.31832
      N   19   -0.45030      1.99924     5.43071    0.02035     7.45030
      C   20    0.10633      1.99904     3.86852    0.02611     5.89367
      C   21   -0.07982      1.99887     4.06374    0.01722     6.07982
      C   22   -0.18759      1.99891     4.17257    0.01611     6.18759
      C   23   -0.17770      1.99894     4.16389    0.01487     6.17770
      C   24   -0.17676      1.99878     4.16475    0.01322     6.17676
      C   25   -0.17807      1.99894     4.16418    0.01496     6.17807
      C   26   -0.20521      1.99891     4.19131    0.01499     6.20521
      C   27    0.30573      1.99921     3.65756    0.03749     5.69427
      N   28   -0.31833      1.99959     5.30187    0.01687     7.31833
      H   29    0.24140      0.00000     0.75518    0.00342     0.75860
      H   30    0.22705      0.00000     0.76880    0.00415     0.77295
      H   31    0.22218      0.00000     0.77392    0.00390     0.77782
      H   32    0.23744      0.00000     0.75924    0.00332     0.76256
      H   33    0.23744      0.00000     0.75924    0.00332     0.76256
      H   34    0.22218      0.00000     0.77392    0.00390     0.77782
      H   35    0.22705      0.00000     0.76880    0.00415     0.77295
      H   36    0.24140      0.00000     0.75518    0.00342     0.75860
      H   37    0.17064      0.00000     0.82300    0.00636     0.82936
      H   38    0.25654      0.00000     0.73973    0.00373     0.74346
      H   39    0.24852      0.00000     0.74910    0.00239     0.75148
      H   40    0.24797      0.00000     0.74965    0.00239     0.75203
      H   41    0.23762      0.00000     0.75946    0.00292     0.76238
      H   42    0.17065      0.00000     0.82299    0.00636     0.82935
      H   43    0.25653      0.00000     0.73974    0.00373     0.74347
      H   44    0.24852      0.00000     0.74910    0.00239     0.75148
      H   45    0.24797      0.00000     0.74965    0.00239     0.75203
      H   46    0.23762      0.00000     0.75946    0.00292     0.76238
 =======================================================================
   * Total *   -0.00000     51.97520   127.46246    0.56234   180.00000

 ******    1 imaginary frequencies (negative Signs) ******

                      1                      2                      3
                      A                      A                      A
 Frequencies --    -25.5482                17.0526                26.4974
 Red. masses --      3.8151                 8.9457                 4.1212
 Frc consts  --      0.0015                 0.0015                 0.0017
 IR Inten    --      0.0001                 0.2651                 1.7219

                      4                      5                      6
                      A                      A                      A
 Frequencies --     37.4668                44.3307                61.3284
 Red. masses --      5.7404                 4.9634                 5.9025
 Frc consts  --      0.0047                 0.0057                 0.0131
 IR Inten    --      2.3379                 0.0127                 0.4117

                      7                      8                      9
                      A                      A                      A
 Frequencies --     79.2185                85.2310                96.7472
 Red. masses --      4.6052                 4.6857                 3.7057
 Frc consts  --      0.0170                 0.0201                 0.0204
 IR Inten    --      0.2990                12.7672                 0.6198

                     10                     11                     12
                      A                      A                      A
 Frequencies --    108.9532               126.0270               149.2941
 Red. masses --      4.9097                 4.1402                 5.1635
 Frc consts  --      0.0343                 0.0387                 0.0678
 IR Inten    --      1.1217                 0.3322                 5.6656

                     13                     14                     15
                      A                      A                      A
 Frequencies --    163.2800               173.2502               202.1890
 Red. masses --      5.9682                 5.8366                 5.8832
 Frc consts  --      0.0937                 0.1032                 0.1417
 IR Inten    --      0.7391                 4.0439                 0.0016

                     16                     17                     18
                      A                      A                      A
 Frequencies --    203.5429               224.0452               278.1705
 Red. masses --      2.6926                 6.3196                 4.3512
 Frc consts  --      0.0657                 0.1869                 0.1984
 IR Inten    --      5.2286                 0.1444                 9.3887

                     19                     20                     21
                      A                      A                      A
 Frequencies --    302.7441               330.7169               347.3631
 Red. masses --      3.4333                 3.3604                 2.1633
 Frc consts  --      0.1854                 0.2166                 0.1538
 IR Inten    --      0.8752                 1.5564                 0.0100

                     22                     23                     24
                      A                      A                      A
 Frequencies --    408.5509               414.2512               414.6555
 Red. masses --      4.6564                 2.9291                 3.1389
 Frc consts  --      0.4579                 0.2962                 0.3180
 IR Inten    --     10.3355                 0.1461                 0.7612

                     25                     26                     27
                      A                      A                      A
 Frequencies --    424.3033               433.7086               443.8428
 Red. masses --      5.0013                 3.3397                 3.1079
 Frc consts  --      0.5305                 0.3701                 0.3607
 IR Inten    --      0.9327                 8.0980                 0.1147

                     28                     29                     30
                      A                      A                      A
 Frequencies --    474.8746               478.5670               495.4774
 Red. masses --      3.3977                 5.0992                 5.7517
 Frc consts  --      0.4514                 0.6881                 0.8319
 IR Inten    --      2.3225                 0.2229                 0.4187

                     31                     32                     33
                      A                      A                      A
 Frequencies --    514.5925               521.0553               570.2996
 Red. masses --      3.4387                 3.7537                 6.9045
 Frc consts  --      0.5365                 0.6005                 1.3231
 IR Inten    --     11.0095                 4.0440                 1.0708

                     34                     35                     36
                      A                      A                      A
 Frequencies --    570.4268               586.5211               588.1989
 Red. masses --      7.1449                 3.3979                 3.1846
 Frc consts  --      1.3698                 0.6887                 0.6492
 IR Inten    --      0.4128                 0.1488                35.4593

                     37                     38                     39
                      A                      A                      A
 Frequencies --    637.0240               637.2532               657.7707
 Red. masses --      4.2011                 3.1951                 7.2517
 Frc consts  --      1.0045                 0.7645                 1.8486
 IR Inten    --      8.4543                 2.3720                 0.3412

                     40                     41                     42
                      A                      A                      A
 Frequencies --    658.1241               748.0128               754.3587
 Red. masses --      6.9996                 3.5346                 3.8601
 Frc consts  --      1.7862                 1.1652                 1.2942
 IR Inten    --      0.1421                 2.3173                 1.1921

                     43                     44                     45
                      A                      A                      A
 Frequencies --    777.9960               780.6224               797.9100
 Red. masses --      3.2363                 4.3750                 2.4698
 Frc consts  --      1.1541                 1.5708                 0.9265
 IR Inten    --      2.6386                 0.2100                 2.7919

                     46                     47                     48
                      A                      A                      A
 Frequencies --    855.6861               856.4549               868.0963
 Red. masses --      1.4692                 1.5017                 1.4671
 Frc consts  --      0.6338                 0.6490                 0.6514
 IR Inten    --      4.1703                29.9550                 0.7106

                     49                     50                     51
                      A                      A                      A
 Frequencies --    868.2623               873.5260               877.6913
 Red. masses --      1.3874                 1.6920                 1.7956
 Frc consts  --      0.6163                 0.7607                 0.8150
 IR Inten    --      4.1546                 0.7168                30.2653

                     52                     53                     54
                      A                      A                      A
 Frequencies --    900.8124               901.3529               917.3205
 Red. masses --      3.1896                 3.3829                 2.3804
 Frc consts  --      1.5249                 1.6193                 1.1802
 IR Inten    --     22.6920                24.0695                 0.1079

                     55                     56                     57
                      A                      A                      A
 Frequencies --    932.2330               979.0127               982.0251
 Red. masses --      1.8409                 1.5181                 1.5163
 Frc consts  --      0.9426                 0.8573                 0.8615
 IR Inten    --      5.5282                 8.1300                 0.1324

                     58                     59                     60
                      A                      A                      A
 Frequencies --    998.8540              1004.3304              1004.4162
 Red. masses --      1.9875                 1.4576                 1.4635
 Frc consts  --      1.1683                 0.8662                 0.8699
 IR Inten    --     10.0600                 1.2396                 0.3136

                     61                     62                     63
                      A                      A                      A
 Frequencies --   1018.3545              1018.9385              1035.7769
 Red. masses --      1.4647                 1.4733                 2.2816
 Frc consts  --      0.8950                 0.9012                 1.4422
 IR Inten    --      3.0803                 1.8082                 1.9228

                     64                     65                     66
                      A                      A                      A
 Frequencies --   1035.8788              1053.1657              1065.7323
 Red. masses --      2.2743                 3.9273                 1.3060
 Frc consts  --      1.4378                 2.5665                 0.8739
 IR Inten    --      1.6672                39.2557                 4.0288

                     67                     68                     69
                      A                      A                      A
 Frequencies --   1087.1667              1094.5033              1131.5236
 Red. masses --      1.4006                 2.5348                 1.2543
 Frc consts  --      0.9754                 1.7890                 0.9462
 IR Inten    --      3.9843                 3.1132                 8.3758

                     70                     71                     72
                      A                      A                      A
 Frequencies --   1131.5305              1138.6248              1147.1883
 Red. masses --      1.2579                 2.0234                 2.5786
 Frc consts  --      0.9489                 1.5456                 1.9994
 IR Inten    --      1.7534                 3.3218                 2.7829

                     73                     74                     75
                      A                      A                      A
 Frequencies --   1167.7404              1186.5077              1186.7861
 Red. masses --      1.8627                 1.1114                 1.1109
 Frc consts  --      1.4966                 0.9218                 0.9219
 IR Inten    --      2.3827                 0.8993                 0.0001

                     76                     77                     78
                      A                      A                      A
 Frequencies --   1232.5567              1242.4280              1242.6189
 Red. masses --      1.4081                 2.6568                 2.6196
 Frc consts  --      1.2604                 2.4163                 2.3832
 IR Inten    --      0.4761                 6.7743                 6.6911

                     79                     80                     81
                      A                      A                      A
 Frequencies --   1249.3206              1258.6276              1272.1153
 Red. masses --      1.3640                 1.3673                 2.4198
 Frc consts  --      1.2544                 1.2762                 2.3072
 IR Inten    --     21.0202                19.6662                 3.1182

                     82                     83                     84
                      A                      A                      A
 Frequencies --   1272.4182              1299.2706              1308.5095
 Red. masses --      2.3784                 1.2609                 1.2518
 Frc consts  --      2.2688                 1.2541                 1.2628
 IR Inten    --      4.4863                 2.7453                35.0900

                     85                     86                     87
                      A                      A                      A
 Frequencies --   1312.4660              1313.8256              1315.4975
 Red. masses --      1.3692                 1.3714                 1.2075
 Frc consts  --      1.3896                 1.3947                 1.2311
 IR Inten    --      9.0532                 1.4979                16.7973

                     88                     89                     90
                      A                      A                      A
 Frequencies --   1336.7701              1360.4577              1379.2058
 Red. masses --      1.5501                 1.5091                 3.8146
 Frc consts  --      1.6320                 1.6457                 4.2753
 IR Inten    --      0.1821                 0.0143                 1.7956

                     91                     92                     93
                      A                      A                      A
 Frequencies --   1380.1900              1380.8651              1392.1753
 Red. masses --      1.6237                 4.2828                 1.7767
 Frc consts  --      1.8223                 4.8115                 2.0288
 IR Inten    --     14.3182                12.8995                 0.5160

                     94                     95                     96
                      A                      A                      A
 Frequencies --   1394.7398              1408.0966              1408.6884
 Red. masses --      2.1253                 1.9376                 1.9761
 Frc consts  --      2.4359                 2.2635                 2.3104
 IR Inten    --     29.9678                 0.6993                 7.4836

                     97                     98                     99
                      A                      A                      A
 Frequencies --   1453.0734              1458.1322              1458.9106
 Red. masses --      1.0977                 1.2365                 2.1960
 Frc consts  --      1.3656                 1.5490                 2.7539
 IR Inten    --      5.1363                 7.2207                 2.2904

                    100                    101                    102
                      A                      A                      A
 Frequencies --   1459.2001              1461.6444              1476.2956
 Red. masses --      3.4994                 1.1857                 1.1152
 Frc consts  --      4.3901                 1.4925                 1.4320
 IR Inten    --      9.3056                16.9678                 1.5400

                    103                    104                    105
                      A                      A                      A
 Frequencies --   1557.9746              1558.0557              1641.3716
 Red. masses --      3.1469                 3.1481                 7.4562
 Frc consts  --      4.5004                 4.5026                11.8353
 IR Inten    --      7.2448                 4.2637                 1.8034

                    106                    107                    108
                      A                      A                      A
 Frequencies --   1641.4273              1700.6591              1700.8730
 Red. masses --      7.4482                 6.6859                 6.6767
 Frc consts  --     11.8235                11.3931                11.3803
 IR Inten    --      2.4564                 3.3756                 1.4746

                    109                    110                    111
                      A                      A                      A
 Frequencies --   1756.9838              1762.0171              2394.2798
 Red. masses --      9.7083                 9.5304                12.6745
 Frc consts  --     17.6575                17.4333                42.8084
 IR Inten    --    141.8014                29.9976                33.4718

                    112                    113                    114
                      A                      A                      A
 Frequencies --   2394.4173              3024.9068              3035.5209
 Red. masses --     12.6745                 1.0825                 1.0799
 Frc consts  --     42.8136                 5.8360                 5.8626
 IR Inten    --     59.0144                 0.0441                 2.2863

                    115                    116                    117
                      A                      A                      A
 Frequencies --   3044.0836              3046.4569              3053.3673
 Red. masses --      1.0645                 1.0703                 1.0687
 Frc consts  --      5.8120                 5.8528                 5.8702
 IR Inten    --      1.8263                39.3587                25.0919

                    118                    119                    120
                      A                      A                      A
 Frequencies --   3056.5919              3092.6870              3093.3638
 Red. masses --      1.0631                 1.0851                 1.0851
 Frc consts  --      5.8521                 6.1147                 6.1174
 IR Inten    --     32.5951                19.5245                58.3425

                    121                    122                    123
                      A                      A                      A
 Frequencies --   3112.1258              3112.6752              3118.1387
 Red. masses --      1.1006                 1.1010                 1.0999
 Frc consts  --      6.2808                 6.2851                 6.3006
 IR Inten    --     44.7462                 4.1619                41.8761

                    124                    125                    126
                      A                      A                      A
 Frequencies --   3122.3738              3196.7163              3196.8319
 Red. masses --      1.1049                 1.0926                 1.0925
 Frc consts  --      6.3465                 6.5783                 6.5785
 IR Inten    --     27.9177                 0.0451                 0.1970

                    127                    128                    129
                      A                      A                      A
 Frequencies --   3210.0464              3210.0585              3237.1638
 Red. masses --      1.0910                 1.0910                 1.0957
 Frc consts  --      6.6238                 6.6238                 6.7649
 IR Inten    --      1.9308                 3.8247                 0.3410

                    130                    131                    132
                      A                      A                      A
 Frequencies --   3237.2039              3238.4673              3238.5114
 Red. masses --      1.0957                 1.0968                 1.0968
 Frc consts  --      6.7650                 6.7771                 6.7772
 IR Inten    --      0.5530                 1.0935                 0.8321

 - Thermochemistry -
 -------------------
 Temperature   298.150 Kelvin.  Pressure   1.00000 Atm.
 Atom     1 has atomic number  6 and mass  12.00000

 Molecular mass:   340.16880 amu.
 Principal axes and moments of inertia in atomic units:
                           1         2         3
     Eigenvalues --  9918.88784********************
           X            1.00000   0.00000   0.00063
           Y           -0.00000   1.00000   0.00000
           Z           -0.00063  -0.00000   1.00000
 This molecule is an asymmetric top.
 Rotational symmetry number  1.
 Warning -- assumption of classical behavior for rotation
           may cause significant error
 Rotational temperatures (Kelvin)      0.00873     0.00505     0.00327
 Rotational constants (GHZ):           0.18195     0.10514     0.06819
    1 imaginary frequencies ignored.
 Zero-point vibrational energy     983801.6 (Joules/Mol)
                                  235.13423 (Kcal/Mol)
 Warning -- explicit consideration of  35 degrees of freedom as
           vibrations may cause significant error
 Vibrational temperatures:     24.53    38.12    53.91    63.78    88.24
          (Kelvin)            113.98   122.63   139.20   156.76   181.32
                              214.80   234.92   249.27   290.90   292.85
                              322.35   400.23   435.58   475.83   499.78
                              587.81   596.02   596.60   610.48   624.01
                              638.59   683.24   688.55   712.88   740.38
                              749.68   820.53   820.72   843.87   846.29
                              916.54   916.87   946.39   946.89  1076.22
                             1085.35  1119.36  1123.14  1148.01  1231.14
                             1232.25  1249.00  1249.24  1256.81  1262.80
                             1296.07  1296.85  1319.82  1341.28  1408.58
                             1412.92  1437.13  1445.01  1445.13  1465.19
                             1466.03  1490.25  1490.40  1515.27  1533.35
                             1564.19  1574.75  1628.01  1628.02  1638.23
                             1650.55  1680.12  1707.12  1707.52  1773.37
                             1787.58  1787.85  1797.49  1810.88  1830.29
                             1830.73  1869.36  1882.65  1888.35  1890.30
                             1892.71  1923.31  1957.40  1984.37  1985.79
                             1986.76  2003.03  2006.72  2025.94  2026.79
                             2090.65  2097.93  2099.05  2099.46  2102.98
                             2124.06  2241.58  2241.69  2361.57  2361.65
                             2446.87  2447.18  2527.91  2535.15  3444.83
                             3445.03  4352.17  4367.44  4379.76  4383.17
                             4393.11  4397.75  4449.69  4450.66  4477.65
                             4478.45  4486.31  4492.40  4599.36  4599.53
                             4618.54  4618.56  4657.56  4657.61  4659.43
                             4659.50

 Zero-point correction=                           0.374710 (Hartree/Particle)
 Thermal correction to Energy=                    0.396602
 Thermal correction to Enthalpy=                  0.397547
 Thermal correction to Gibbs Free Energy=         0.320836
 Sum of electronic and zero-point Energies=          -1066.991786
 Sum of electronic and thermal Energies=             -1066.969894
 Sum of electronic and thermal Enthalpies=           -1066.968949
 Sum of electronic and thermal Free Energies=        -1067.045660

                     E (Thermal)             CV                S
                      KCal/Mol        Cal/Mol-Kelvin    Cal/Mol-Kelvin
 Total                  248.872             84.866            161.450
 Electronic               0.000              0.000              0.000
 Translational            0.889              2.981             43.367
 Rotational               0.889              2.981             36.753
 Vibrational            247.094             78.905             81.330
 Vibration     1          0.593              1.986              6.951
 Vibration     2          0.593              1.984              6.076
 Vibration     3          0.594              1.982              5.389
 Vibration     4          0.595              1.980              5.056
 Vibration     5          0.597              1.973              4.414
 Vibration     6          0.600              1.963              3.910
 Vibration     7          0.601              1.959              3.767
 Vibration     8          0.603              1.951              3.519
 Vibration     9          0.606              1.942              3.287
 Vibration    10          0.611              1.927              3.006
 Vibration    11          0.618              1.903              2.681
 Vibration    12          0.623              1.888              2.511
 Vibration    13          0.627              1.875              2.400
 Vibration    14          0.639              1.837              2.113
 Vibration    15          0.639              1.835              2.101
 Vibration    16          0.649              1.804              1.926
 Vibration    17          0.679              1.714              1.545
 Vibration    18          0.694              1.669              1.402
 Vibration    19          0.713              1.614              1.257
 Vibration    20          0.725              1.581              1.178
 Vibration    21          0.773              1.452              0.932
 Vibration    22          0.778              1.439              0.912
 Vibration    23          0.778              1.438              0.910
 Vibration    24          0.786              1.417              0.877
 Vibration    25          0.794              1.397              0.847
 Vibration    26          0.803              1.374              0.815
 Vibration    27          0.832              1.306              0.724
 Vibration    28          0.835              1.298              0.714
 Vibration    29          0.851              1.260              0.670
 Vibration    30          0.870              1.218              0.623
 Vibration    31          0.876              1.203              0.608
 Vibration    32          0.926              1.095              0.504
 Vibration    33          0.927              1.095              0.503
 Vibration    34          0.944              1.061              0.473
 Vibration    35          0.945              1.057              0.470

 Normal termination of Gaussian 16 at Thu Dec  8 09:38:53 2022.
