 Gaussian 16, Revision A.03,
 Gaussian 16:  ES64L-G16RevA.03 25-Dec-2016

 ----------------------------------------------------------------------
 #p pop=(regular,nbo,savenbos) freq=noraman def2svp empiricaldispersion
 =gd3bj output=wfx pbe1pbe
 ----------------------------------------------------------------------

 ------
 06_lig
 ------
 Symbolic Z-matrix:
 Charge =  0 Multiplicity = 1

                         Standard orientation:
 ---------------------------------------------------------------------
 Center     Atomic      Atomic             Coordinates (Angstroms)
 Number     Number       Type             X           Y           Z
 ---------------------------------------------------------------------
      1          6           0        0.767752    1.867113   -0.934258
      2          1           0        0.467018    1.884233   -1.999769
      3          6           0       -0.540226    1.902440   -0.118447
      4          1           0       -0.259699    1.839648    0.951409
      5          6           0       -1.281964    3.214819   -0.373763
      6          6           0       -0.408369    4.429439   -0.093557
      7          6           0        0.884553    4.374330   -0.895297
      8          6           0        1.639422    3.076833   -0.632786
      9          7           0       -1.337125    0.734957   -0.451394
     10          6           0       -2.468864    0.549518    0.100179
     11          6           0       -3.309854   -0.607087   -0.209098
     12          6           0       -4.312710   -1.036324    0.675645
     13          6           0       -5.099127   -2.149237    0.388556
     14          6           0       -4.895535   -2.844566   -0.799627
     15          6           0       -3.915236   -2.426898   -1.700658
     16          6           0       -3.134920   -1.317667   -1.407350
     17         17           0       -4.584272   -0.207279    2.176553
     18          7           0        1.391455    0.570306   -0.763771
     19          6           0        2.595617    0.407063   -0.386996
     20          6           0        3.227504   -0.910888   -0.316672
     21          6           0        2.886251   -1.918441   -1.230461
     22          6           0        3.488204   -3.168053   -1.166169
     23          6           0        4.445094   -3.428240   -0.185949
     24          6           0        4.813240   -2.437965    0.721651
     25          6           0        4.211006   -1.186255    0.645669
     26         17           0        4.667546    0.032368    1.794581
     27          1           0       -2.193163    3.248815    0.242758
     28          1           0       -1.612859    3.217780   -1.427036
     29          1           0       -0.169509    4.467728    0.984158
     30          1           0       -0.965781    5.351394   -0.321274
     31          1           0        1.526690    5.236150   -0.656449
     32          1           0        0.651870    4.446643   -1.972040
     33          1           0        1.960036    3.045172    0.424356
     34          1           0        2.553963    3.039290   -1.246114
     35          1           0       -2.863664    1.248761    0.855139
     36          1           0       -5.859675   -2.464176    1.104369
     37          1           0       -5.512601   -3.718264   -1.021740
     38          1           0       -3.758306   -2.964351   -2.637807
     39          1           0       -2.381603   -0.973886   -2.123770
     40          1           0        3.220932    1.266062   -0.104475
     41          1           0        2.162348   -1.694679   -2.021416
     42          1           0        3.210123   -3.940134   -1.885816
     43          1           0        4.917679   -4.411293   -0.125891
     44          1           0        5.559191   -2.627861    1.494609
 ---------------------------------------------------------------------

 SCF Done:  E(RPBE1PBE) =  -1801.84802351     A.U. after   15 cycles

 The electronic state is 1-A.
 Alpha  occ. eigenvalues -- -101.68608-101.68477 -14.37999 -14.37671 -10.30124
 Alpha  occ. eigenvalues --  -10.29910 -10.27409 -10.27142 -10.26320 -10.25829
 Alpha  occ. eigenvalues --  -10.25584 -10.25392 -10.25212 -10.25163 -10.25081
 Alpha  occ. eigenvalues --  -10.25030 -10.24718 -10.24686 -10.24548 -10.24444
 Alpha  occ. eigenvalues --  -10.23499 -10.23371 -10.23317 -10.23084  -9.53797
 Alpha  occ. eigenvalues --   -9.53667  -7.27917  -7.27786  -7.26955  -7.26924
 Alpha  occ. eigenvalues --   -7.26829  -7.26792  -0.95359  -0.93600  -0.91882
 Alpha  occ. eigenvalues --   -0.91290  -0.86145  -0.85952  -0.84797  -0.79403
 Alpha  occ. eigenvalues --   -0.78929  -0.75821  -0.75699  -0.75201  -0.74527
 Alpha  occ. eigenvalues --   -0.67480  -0.66586  -0.63745  -0.63252  -0.61716
 Alpha  occ. eigenvalues --   -0.60866  -0.58619  -0.57414  -0.56512  -0.52997
 Alpha  occ. eigenvalues --   -0.52693  -0.52424  -0.50945  -0.48711  -0.48112
 Alpha  occ. eigenvalues --   -0.47463  -0.47237  -0.46703  -0.46396  -0.45440
 Alpha  occ. eigenvalues --   -0.44692  -0.44603  -0.44496  -0.43241  -0.42173
 Alpha  occ. eigenvalues --   -0.41778  -0.41304  -0.40440  -0.38684  -0.38029
 Alpha  occ. eigenvalues --   -0.37572  -0.37384  -0.37360  -0.36572  -0.35488
 Alpha  occ. eigenvalues --   -0.35139  -0.35087  -0.34019  -0.33696  -0.32901
 Alpha  occ. eigenvalues --   -0.32506  -0.32435  -0.31607  -0.26812  -0.26715
 Alpha  occ. eigenvalues --   -0.25812  -0.25632  -0.25262  -0.23738
 Alpha virt. eigenvalues --   -0.04988  -0.04151  -0.01288  -0.01197   0.03720
 Alpha virt. eigenvalues --    0.04122   0.05055   0.05254   0.06541   0.07362
 Alpha virt. eigenvalues --    0.09326   0.09539   0.09703   0.11244   0.11356

 Mulliken charges:
               1
     1  C    0.051001
     2  H    0.030370
     3  C   -0.033018
     4  H    0.031767
     5  C   -0.018491
     6  C   -0.040368
     7  C   -0.013323
     8  C   -0.062121
     9  N   -0.168576
    10  C    0.035756
    11  C    0.003301
    12  C    0.018777
    13  C    0.006738
    14  C   -0.012034
    15  C   -0.008665
    16  C   -0.006724
    17  Cl  -0.092256
    18  N   -0.182674
    19  C   -0.003538
    20  C    0.016324
    21  C   -0.002683
    22  C   -0.011781
    23  C   -0.012723
    24  C    0.002283
    25  C    0.024025
    26  Cl  -0.093098
    27  H    0.041618
    28  H    0.032330
    29  H    0.030029
    30  H    0.038165
    31  H    0.034365
    32  H    0.027554
    33  H    0.039830
    34  H    0.048421
    35  H    0.010638
    36  H    0.020880
    37  H    0.030645
    38  H    0.026164
    39  H    0.033777
    40  H    0.020403
    41  H    0.030134
    42  H    0.026147
    43  H    0.030125
    44  H    0.020507
 Sum of Mulliken charges =  -0.00000

 Dipole moment (field-independent basis, Debye):
    X=             -0.1805    Y=             -0.0312    Z=             -1.2191  Tot=              1.2328
 Quadrupole moment (field-independent basis, Debye-Ang):
   XX=           -149.2165   YY=           -136.1671   ZZ=           -152.0749
   XY=              0.6772   XZ=              1.5754   YZ=              3.7156

  Exact polarizability: 271.934  10.996 285.123   8.391  27.639 205.858
 Approx polarizability: 363.495  19.702 390.521  15.672  51.991 347.955

 Summary of Natural Population Analysis:

                                       Natural Population
                Natural  -----------------------------------------------
    Atom  No    Charge         Core      Valence    Rydberg      Total
 -----------------------------------------------------------------------
      C    1   -0.05700      1.99895     4.03301    0.02504     6.05700
      H    2    0.24722      0.00000     0.74790    0.00488     0.75278
      C    3   -0.05602      1.99894     4.03377    0.02331     6.05602
      H    4    0.23234      0.00000     0.76215    0.00551     0.76766
      C    5   -0.45944      1.99909     4.44533    0.01502     6.45944
      C    6   -0.44496      1.99912     4.43192    0.01392     6.44496
      C    7   -0.43987      1.99913     4.42675    0.01399     6.43987
      C    8   -0.48370      1.99910     4.47037    0.01423     6.48370
      N    9   -0.45950      1.99926     5.43973    0.02051     7.45950
      C   10    0.11480      1.99907     3.85892    0.02721     5.88520
      C   11   -0.12006      1.99876     4.10337    0.01794     6.12006
      C   12   -0.00741      1.99858     3.98445    0.02438     6.00741
      C   13   -0.24340      1.99883     4.22769    0.01689     6.24340
      C   14   -0.20834      1.99895     4.19463    0.01475     6.20834
      C   15   -0.23270      1.99894     4.21874    0.01502     6.23270
      C   16   -0.17303      1.99893     4.15844    0.01566     6.17303
     Cl   17   -0.00973      9.99959     6.99442    0.01572    17.00973
      N   18   -0.45386      1.99924     5.43423    0.02039     7.45386
      C   19    0.10016      1.99904     3.87365    0.02715     5.89984
      C   20   -0.11350      1.99876     4.09651    0.01823     6.11350
      C   21   -0.17739      1.99892     4.16284    0.01562     6.17739
      C   22   -0.23210      1.99894     4.21813    0.01503     6.23210
      C   23   -0.21080      1.99895     4.19711    0.01474     6.21080
      C   24   -0.24279      1.99883     4.22709    0.01688     6.24279
      C   25   -0.00837      1.99857     3.98542    0.02438     6.00837
     Cl   26   -0.00963      9.99959     6.99436    0.01568    17.00963
      H   27    0.23686      0.00000     0.76011    0.00302     0.76314
      H   28    0.22831      0.00000     0.76688    0.00481     0.77169
      H   29    0.22162      0.00000     0.77446    0.00392     0.77838
      H   30    0.23633      0.00000     0.76037    0.00330     0.76367
      H   31    0.23504      0.00000     0.76160    0.00335     0.76496
      H   32    0.22101      0.00000     0.77502    0.00396     0.77899
      H   33    0.22752      0.00000     0.76827    0.00421     0.77248
      H   34    0.24088      0.00000     0.75573    0.00339     0.75912
      H   35    0.18013      0.00000     0.81332    0.00655     0.81987
      H   36    0.24713      0.00000     0.74955    0.00332     0.75287
      H   37    0.23557      0.00000     0.76171    0.00272     0.76443
      H   38    0.23496      0.00000     0.76234    0.00269     0.76504
      H   39    0.25425      0.00000     0.74159    0.00416     0.74575
      H   40    0.18138      0.00000     0.81158    0.00703     0.81862
      H   41    0.25097      0.00000     0.74510    0.00393     0.74903
      H   42    0.23495      0.00000     0.76236    0.00270     0.76505
      H   43    0.23535      0.00000     0.76192    0.00273     0.76465
      H   44    0.24679      0.00000     0.74989    0.00331     0.75321
 =======================================================================
   * Total *   -0.00000     63.97605   123.50276    0.52119   188.00000

 ******    1 imaginary frequencies (negative Signs) ******

                      1                      2                      3
                      A                      A                      A
 Frequencies --    -74.0157                 8.9558                18.3742
 Red. masses --      3.2742                 9.0520                 6.0087
 Frc consts  --      0.0106                 0.0004                 0.0012
 IR Inten    --      3.7701                 0.2153                 0.0065

                      4                      5                      6
                      A                      A                      A
 Frequencies --     30.8862                41.2153                53.2283
 Red. masses --      6.5443                 5.2526                 4.9392
 Frc consts  --      0.0037                 0.0053                 0.0082
 IR Inten    --      0.5600                 1.3398                 2.2057

                      7                      8                      9
                      A                      A                      A
 Frequencies --     62.4643                80.5079               114.9512
 Red. masses --      4.7835                 3.8469                 3.9622
 Frc consts  --      0.0110                 0.0147                 0.0308
 IR Inten    --      2.2522                 3.7547                 0.4914

                     10                     11                     12
                      A                      A                      A
 Frequencies --    124.1345               151.2018               172.0012
 Red. masses --      4.6165                 4.4838                 4.1935
 Frc consts  --      0.0419                 0.0604                 0.0731
 IR Inten    --      0.9678                 0.2544                 2.0184

                     13                     14                     15
                      A                      A                      A
 Frequencies --    179.9934               203.2320               216.0176
 Red. masses --      4.7809                 3.7846                 4.2305
 Frc consts  --      0.0913                 0.0921                 0.1163
 IR Inten    --      0.6304                 1.6918                 2.8481

                     16                     17                     18
                      A                      A                      A
 Frequencies --    245.8965               288.5811               293.1168
 Red. masses --      6.3178                 3.2800                 3.0609
 Frc consts  --      0.2251                 0.1609                 0.1549
 IR Inten    --      1.3790                 1.6082                 4.3334

                     19                     20                     21
                      A                      A                      A
 Frequencies --    336.2934               339.9463               387.9105
 Red. masses --      6.2040                 2.0789                 5.2522
 Frc consts  --      0.4134                 0.1415                 0.4656
 IR Inten    --      0.1431                 0.0286                 0.2410

                     22                     23                     24
                      A                      A                      A
 Frequencies --    401.1792               421.5901               429.8438
 Red. masses --      3.2687                 8.8142                 5.2417
 Frc consts  --      0.3100                 0.9230                 0.5706
 IR Inten    --      4.4657                 5.5961                 8.1362

                     25                     26                     27
                      A                      A                      A
 Frequencies --    448.9543               465.9933               471.2937
 Red. masses --      3.0883                 3.4727                 3.4964
 Frc consts  --      0.3668                 0.4443                 0.4576
 IR Inten    --      1.3597                 3.1946                 6.7252

                     28                     29                     30
                      A                      A                      A
 Frequencies --    477.2438               501.8467               504.6465
 Red. masses --      3.4193                 4.3295                 3.4046
 Frc consts  --      0.4589                 0.6424                 0.5108
 IR Inten    --      5.5887                 1.3525                 5.3061

                     31                     32                     33
                      A                      A                      A
 Frequencies --    544.2172               547.6963               572.3936
 Red. masses --      3.3437                 3.7730                 5.1974
 Frc consts  --      0.5835                 0.6668                 1.0033
 IR Inten    --      1.8166                 1.4733                 1.4554

                     34                     35                     36
                      A                      A                      A
 Frequencies --    588.1583               656.6926               667.9764
 Red. masses --      3.3873                 4.9324                 4.5733
 Frc consts  --      0.6904                 1.2532                 1.2023
 IR Inten    --      1.9541                 5.9781                10.1934

                     37                     38                     39
                      A                      A                      A
 Frequencies --    727.5273               734.2948               754.3101
 Red. masses --      4.6957                 5.4532                 3.9043
 Frc consts  --      1.4644                 1.7324                 1.3089
 IR Inten    --     11.1213                 9.9715                 1.8672

                     40                     41                     42
                      A                      A                      A
 Frequencies --    760.5724               774.8527               776.1650
 Red. masses --      3.0425                 1.2711                 1.3697
 Frc consts  --      1.0369                 0.4497                 0.4862
 IR Inten    --     11.9633                58.4526                33.6347

                     43                     44                     45
                      A                      A                      A
 Frequencies --    800.0138               863.1861               869.3637
 Red. masses --      1.9404                 1.8310                 1.6564
 Frc consts  --      0.7317                 0.8038                 0.7376
 IR Inten    --      0.3531                 5.5501                 9.3283

                     46                     47                     48
                      A                      A                      A
 Frequencies --    879.8899               880.9734               896.0447
 Red. masses --      2.9200                 2.2595                 1.4690
 Frc consts  --      1.3320                 1.0332                 0.6949
 IR Inten    --      0.4298                 4.0687                 1.2143

                     49                     50                     51
                      A                      A                      A
 Frequencies --    901.1422               918.4794               934.9961
 Red. masses --      1.8762                 2.2151                 1.9052
 Frc consts  --      0.8977                 1.1010                 0.9813
 IR Inten    --      7.2158                 1.7414                 2.6685

                     52                     53                     54
                      A                      A                      A
 Frequencies --    977.1080               979.5472               990.2747
 Red. masses --      1.4809                 1.7206                 1.5054
 Frc consts  --      0.8330                 0.9727                 0.8698
 IR Inten    --      2.3597                 3.6021                 7.9209

                     55                     56                     57
                      A                      A                      A
 Frequencies --    992.5385              1007.1767              1022.0022
 Red. masses --      1.5023                 1.6055                 1.3440
 Frc consts  --      0.8720                 0.9596                 0.8271
 IR Inten    --      1.9848                 2.0658                 0.5742

                     58                     59                     60
                      A                      A                      A
 Frequencies --   1026.4723              1061.5125              1062.9989
 Red. masses --      1.3628                 1.2793                 3.9266
 Frc consts  --      0.8460                 0.8493                 2.6142
 IR Inten    --      0.8627                 1.4007                62.7588

                     61                     62                     63
                      A                      A                      A
 Frequencies --   1069.1278              1071.1061              1075.0955
 Red. masses --      2.3262                 1.9313                 2.8712
 Frc consts  --      1.5666                 1.3055                 1.9553
 IR Inten    --      0.6769                 0.5583                10.4027

                     64                     65                     66
                      A                      A                      A
 Frequencies --   1084.5157              1087.1432              1108.8259
 Red. masses --      2.9842                 1.5818                 3.3056
 Frc consts  --      2.0680                 1.1014                 2.3946
 IR Inten    --     19.6617                 5.7188                24.5400

                     67                     68                     69
                      A                      A                      A
 Frequencies --   1132.6225              1147.5256              1152.6109
 Red. masses --      2.0186                 2.5043                 1.4875
 Frc consts  --      1.5257                 1.9429                 1.1643
 IR Inten    --      0.2479                 0.0904                 2.2659

                     70                     71                     72
                      A                      A                      A
 Frequencies --   1153.4425              1166.0243              1169.4262
 Red. masses --      1.4926                 1.9465                 1.0841
 Frc consts  --      1.1700                 1.5592                 0.8735
 IR Inten    --      4.9523                 7.2539                 1.1748

                     73                     74                     75
                      A                      A                      A
 Frequencies --   1169.7875              1233.1743              1243.7629
 Red. masses --      1.0813                 1.4798                 1.7015
 Frc consts  --      0.8717                 1.3259                 1.5508
 IR Inten    --      1.2996                 4.2095                 1.9137

                     76                     77                     78
                      A                      A                      A
 Frequencies --   1245.5747              1251.8292              1257.4558
 Red. masses --      1.6912                 1.3752                 1.3329
 Frc consts  --      1.5459                 1.2697                 1.2418
 IR Inten    --      7.5254                 6.2555                14.1091

                     79                     80                     81
                      A                      A                      A
 Frequencies --   1291.4838              1302.3786              1304.4400
 Red. masses --      1.3127                 1.6629                 1.5748
 Frc consts  --      1.2900                 1.6619                 1.5788
 IR Inten    --      0.6111                24.9388                19.0054

                     82                     83                     84
                      A                      A                      A
 Frequencies --   1309.2794              1318.4545              1350.5015
 Red. masses --      1.2831                 1.2056                 1.5739
 Frc consts  --      1.2959                 1.2347                 1.6913
 IR Inten    --      4.8298                18.7661                10.3397

                     85                     86                     87
                      A                      A                      A
 Frequencies --   1358.7582              1370.4187              1378.0805
 Red. masses --      1.4975                 1.8009                 2.7081
 Frc consts  --      1.6289                 1.9927                 3.0301
 IR Inten    --      5.7975                 4.4154                 9.0867

                     88                     89                     90
                      A                      A                      A
 Frequencies --   1383.8919              1388.7794              1392.5851
 Red. masses --      2.9191                 1.7028                 2.1244
 Frc consts  --      3.2939                 1.9350                 2.4274
 IR Inten    --      7.9570                 5.2364                17.9173

                     91                     92                     93
                      A                      A                      A
 Frequencies --   1412.2869              1416.9676              1452.8032
 Red. masses --      2.1356                 2.1722                 1.1015
 Frc consts  --      2.5096                 2.5696                 1.3698
 IR Inten    --      5.0947                16.9433                 1.5163

                     94                     95                     96
                      A                      A                      A
 Frequencies --   1456.4034              1460.3929              1475.1194
 Red. masses --      1.0948                 1.0990                 1.1149
 Frc consts  --      1.3682                 1.3810                 1.4293
 IR Inten    --      6.3814                10.2879                 1.8499

                     97                     98                     99
                      A                      A                      A
 Frequencies --   1483.6997              1484.2528              1520.8063
 Red. masses --      2.6852                 2.6728                 3.2492
 Frc consts  --      3.4828                 3.4692                 4.4276
 IR Inten    --     19.1058                47.3315                11.0719

                    100                    101                    102
                      A                      A                      A
 Frequencies --   1521.9729              1651.7546              1653.6935
 Red. masses --      3.2835                 6.8029                 6.7665
 Frc consts  --      4.4812                10.9355                10.9025
 IR Inten    --     16.5413                 6.3422                 7.5455

                    103                    104                    105
                      A                      A                      A
 Frequencies --   1684.4490              1686.3585              1755.0702
 Red. masses --      7.1370                 7.2398                 9.4233
 Frc consts  --     11.9312                12.1305                17.1017
 IR Inten    --     13.6809                11.4651               152.7436

                    106                    107                    108
                      A                      A                      A
 Frequencies --   1759.5853              3016.0629              3031.4683
 Red. masses --      9.5243                 1.0827                 1.0836
 Frc consts  --     17.3741                 5.8026                 5.8670
 IR Inten    --     44.4817                 5.6951                 9.1502

                    109                    110                    111
                      A                      A                      A
 Frequencies --   3044.5037              3051.0340              3054.8917
 Red. masses --      1.0662                 1.0686                 1.0642
 Frc consts  --      5.8224                 5.8606                 5.8517
 IR Inten    --     23.1022                22.3061                23.7771

                    112                    113                    114
                      A                      A                      A
 Frequencies --   3058.2592              3092.6392              3110.6141
 Red. masses --      1.0636                 1.0868                 1.1008
 Frc consts  --      5.8613                 6.1240                 6.2757
 IR Inten    --     27.5968                21.9266                23.2667

                    115                    116                    117
                      A                      A                      A
 Frequencies --   3114.9917              3119.2705              3121.3302
 Red. masses --      1.0988                 1.1037                 1.0853
 Frc consts  --      6.2818                 6.3270                 6.2297
 IR Inten    --     44.9448                23.7884                22.1055

                    118                    119                    120
                      A                      A                      A
 Frequencies --   3125.4074              3198.2565              3202.1123
 Red. masses --      1.1034                 1.0908                 1.0901
 Frc consts  --      6.3500                 6.5741                 6.5853
 IR Inten    --     26.6254                 0.0586                 0.4827

                    121                    122                    123
                      A                      A                      A
 Frequencies --   3215.0048              3215.0860              3231.2906
 Red. masses --      1.0898                 1.0894                 1.0961
 Frc consts  --      6.6369                 6.6345                 6.7432
 IR Inten    --      0.6976                 1.3690                 5.9796

                    124                    125                    126
                      A                      A                      A
 Frequencies --   3232.4485              3239.7644              3240.0680
 Red. masses --      1.0958                 1.0983                 1.0984
 Frc consts  --      6.7459                 6.7918                 6.7939
 IR Inten    --      5.8780                 3.3479                 3.6749

 - Thermochemistry -
 -------------------
 Temperature   298.150 Kelvin.  Pressure   1.00000 Atm.
 Atom     1 has atomic number  6 and mass  12.00000

 Molecular mass:   358.10035 amu.
 Principal axes and moments of inertia in atomic units:
                           1         2         3
     Eigenvalues --  7751.46942********************
           X            1.00000   0.00076   0.00161
           Y           -0.00076   1.00000   0.00103
           Z           -0.00161  -0.00103   1.00000
 This molecule is an asymmetric top.
 Rotational symmetry number  1.
 Warning -- assumption of classical behavior for rotation
           may cause significant error
 Rotational temperatures (Kelvin)      0.01117     0.00505     0.00403
 Rotational constants (GHZ):           0.23283     0.10516     0.08393
    1 imaginary frequencies ignored.
 Zero-point vibrational energy     940254.6 (Joules/Mol)
                                  224.72625 (Kcal/Mol)
 Warning -- explicit consideration of  33 degrees of freedom as
           vibrations may cause significant error
 Vibrational temperatures:     12.89    26.44    44.44    59.30    76.58
          (Kelvin)             89.87   115.83   165.39   178.60   217.55
                              247.47   258.97   292.41   310.80   353.79
                              415.20   421.73   483.85   489.11   558.12
                              577.21   606.57   618.45   645.95   670.46
                              678.09   686.65   722.05   726.07   783.01
                              788.01   823.55   846.23   944.83   961.07
                             1046.75  1056.49  1085.28  1094.29  1114.84
                             1116.73  1151.04  1241.93  1250.82  1265.97
                             1267.52  1289.21  1296.54  1321.49  1345.25
                             1405.84  1409.35  1424.78  1428.04  1449.10
                             1470.43  1476.86  1527.28  1529.42  1538.24
                             1541.08  1546.82  1560.38  1564.16  1595.35
                             1629.59  1651.03  1658.35  1659.55  1677.65
                             1682.54  1683.06  1774.26  1789.50  1792.10
                             1801.10  1809.20  1858.16  1873.83  1876.80
                             1883.76  1896.96  1943.07  1954.95  1971.73
                             1982.75  1991.11  1998.14  2003.62  2031.97
                             2038.70  2090.26  2095.44  2101.18  2122.37
                             2134.71  2135.51  2188.10  2189.78  2376.51
                             2379.30  2423.55  2426.29  2525.15  2531.65
                             4339.44  4361.61  4380.36  4389.76  4395.31
                             4400.15  4449.62  4475.48  4481.78  4487.93
                             4490.90  4496.76  4601.58  4607.13  4625.67
                             4625.79  4649.11  4650.77  4661.30  4661.74

 Zero-point correction=                           0.358124 (Hartree/Particle)
 Thermal correction to Energy=                    0.378935
 Thermal correction to Enthalpy=                  0.379879
 Thermal correction to Gibbs Free Energy=         0.304124
 Sum of electronic and zero-point Energies=          -1801.489899
 Sum of electronic and thermal Energies=             -1801.469089
 Sum of electronic and thermal Enthalpies=           -1801.468145
 Sum of electronic and thermal Free Energies=        -1801.543899

                     E (Thermal)             CV                S
                      KCal/Mol        Cal/Mol-Kelvin    Cal/Mol-Kelvin
 Total                  237.785             80.446            159.439
 Electronic               0.000              0.000              0.000
 Translational            0.889              2.981             43.520
 Rotational               0.889              2.981             36.301
 Vibrational            236.008             74.485             79.617
 Vibration     1          0.593              1.987              8.230
 Vibration     2          0.593              1.986              6.803
 Vibration     3          0.594              1.984              5.772
 Vibration     4          0.594              1.981              5.200
 Vibration     5          0.596              1.976              4.694
 Vibration     6          0.597              1.972              4.378
 Vibration     7          0.600              1.962              3.878
 Vibration     8          0.608              1.937              3.184
 Vibration     9          0.610              1.929              3.035
 Vibration    10          0.619              1.901              2.657
 Vibration    11          0.626              1.877              2.414
 Vibration    12          0.629              1.867              2.328
 Vibration    13          0.639              1.835              2.104
 Vibration    14          0.645              1.817              1.992
 Vibration    15          0.660              1.770              1.760
 Vibration    16          0.685              1.695              1.482
 Vibration    17          0.688              1.687              1.456
 Vibration    18          0.717              1.603              1.230
 Vibration    19          0.720              1.596              1.212
 Vibration    20          0.756              1.496              1.008
 Vibration    21          0.767              1.468              0.958
 Vibration    22          0.784              1.423              0.887
 Vibration    23          0.791              1.405              0.859
 Vibration    24          0.808              1.363              0.799
 Vibration    25          0.823              1.325              0.749
 Vibration    26          0.828              1.314              0.734
 Vibration    27          0.834              1.301              0.718
 Vibration    28          0.857              1.246              0.654
 Vibration    29          0.860              1.240              0.647
 Vibration    30          0.899              1.152              0.556
 Vibration    31          0.903              1.145              0.549
 Vibration    32          0.929              1.091              0.500
 Vibration    33          0.945              1.057              0.470

 Normal termination of Gaussian 16 at Thu Dec  8 09:35:57 2022.
