 Gaussian 16, Revision A.03,
 Gaussian 16:  ES64L-G16RevA.03 25-Dec-2016

 ----------------------------------------------------------------------
 #p pop=(regular,nbo,savenbos) freq=noraman def2svp empiricaldispersion
 =gd3bj output=wfx pbe1pbe
 ----------------------------------------------------------------------

 ------
 07_lig
 ------
 Symbolic Z-matrix:
 Charge =  0 Multiplicity = 1

                         Standard orientation:
 ---------------------------------------------------------------------
 Center     Atomic      Atomic             Coordinates (Angstroms)
 Number     Number       Type             X           Y           Z
 ---------------------------------------------------------------------
      1          6           0        0.528223    1.737497   -0.572882
      2          1           0       -0.041582    1.634209   -1.515980
      3          6           0       -0.527991    1.737277    0.572908
      4          1           0        0.041819    1.633526    1.515964
      5          6           0       -1.333822    3.032244    0.592695
      6          6           0       -0.461292    4.277118    0.604089
      7          6           0        0.461780    4.277347   -0.602886
      8          6           0        1.334185    3.032371   -0.592065
      9          7           0       -1.319421    0.521626    0.469246
     10          6           0       -2.590439    0.557226    0.403298
     11          6           0       -3.473468   -0.592997    0.225929
     12          6           0       -3.154740   -1.934245    0.488345
     13          6           0       -4.045301   -2.971917    0.265935
     14          6           0       -5.312458   -2.682062   -0.232445
     15          6           0       -5.690310   -1.367465   -0.493475
     16          6           0       -4.772386   -0.358083   -0.254239
     17          9           0       -5.131219    0.900854   -0.503693
     18          9           0       -1.974208   -2.229581    1.013100
     19          7           0        1.319473    0.521689   -0.469624
     20          6           0        2.590508    0.557059   -0.403965
     21          6           0        3.473408   -0.593238   -0.226396
     22          6           0        3.154389   -1.934581   -0.487992
     23          6           0        4.044781   -2.972299   -0.265130
     24          6           0        5.312090   -2.682404    0.232871
     25          6           0        5.690233   -1.367740    0.493069
     26          6           0        4.772469   -0.358313    0.253421
     27          9           0        5.131624    0.900691    0.502083
     28          9           0        1.973738   -2.229944   -1.012426
     29          1           0       -2.005818    3.027183    1.465885
     30          1           0       -1.977148    3.068504   -0.304436
     31          1           0        0.139901    4.307097    1.529824
     32          1           0       -1.097371    5.175758    0.614492
     33          1           0        1.097939    5.175917   -0.612926
     34          1           0       -0.139426    4.307767   -1.528590
     35          1           0        1.977530    3.068111    0.305068
     36          1           0        2.006172    3.027712   -1.465265
     37          1           0       -3.127208    1.514006    0.437579
     38          1           0       -3.726982   -3.991014    0.487047
     39          1           0       -6.018657   -3.494151   -0.416978
     40          1           0       -6.676277   -1.110147   -0.881424
     41          1           0        3.127454    1.513738   -0.438519
     42          1           0        3.726237   -3.991471   -0.485622
     43          1           0        6.018155   -3.494524    0.417761
     44          1           0        6.676322   -1.110389    0.880687
 ---------------------------------------------------------------------

 SCF Done:  E(RPBE1PBE) =  -1279.49940031     A.U. after   14 cycles

 The electronic state is 1-A.
 Alpha  occ. eigenvalues --  -24.79754 -24.79754 -24.78204 -24.78204 -14.37567
 Alpha  occ. eigenvalues --  -14.37566 -10.33399 -10.33398 -10.33120 -10.33120
 Alpha  occ. eigenvalues --  -10.27398 -10.27396 -10.26327 -10.26320 -10.26148
 Alpha  occ. eigenvalues --  -10.26148 -10.25739 -10.25739 -10.24962 -10.24962
 Alpha  occ. eigenvalues --  -10.24726 -10.24726 -10.23241 -10.23228 -10.23121
 Alpha  occ. eigenvalues --  -10.23119  -1.25718  -1.25718  -1.24373  -1.24372
 Alpha  occ. eigenvalues --   -0.95012  -0.92991  -0.89688  -0.89390  -0.84700
 Alpha  occ. eigenvalues --   -0.80222  -0.79927  -0.77532  -0.77530  -0.75690
 Alpha  occ. eigenvalues --   -0.75133  -0.68558  -0.67593  -0.65023  -0.64899
 Alpha  occ. eigenvalues --   -0.64485  -0.63366  -0.59637  -0.59252  -0.58345
 Alpha  occ. eigenvalues --   -0.57213  -0.56645  -0.55275  -0.54618  -0.51593
 Alpha  occ. eigenvalues --   -0.51301  -0.51209  -0.50707  -0.50648  -0.50312
 Alpha  occ. eigenvalues --   -0.49781  -0.48564  -0.48438  -0.48301  -0.47191
 Alpha  occ. eigenvalues --   -0.47021  -0.46621  -0.45926  -0.45905  -0.44902
 Alpha  occ. eigenvalues --   -0.43178  -0.41438  -0.41437  -0.41182  -0.40543
 Alpha  occ. eigenvalues --   -0.39498  -0.39292  -0.38559  -0.38256  -0.37972
 Alpha  occ. eigenvalues --   -0.37945  -0.36557  -0.36373  -0.35079  -0.34042
 Alpha  occ. eigenvalues --   -0.33882  -0.33667  -0.31780  -0.26571  -0.26519
 Alpha  occ. eigenvalues --   -0.26246  -0.25658  -0.25312  -0.23230
 Alpha virt. eigenvalues --   -0.04924  -0.04370  -0.00284  -0.00283   0.03829
 Alpha virt. eigenvalues --    0.04518   0.06359   0.06906   0.07027   0.08029
 Alpha virt. eigenvalues --    0.09670   0.11371   0.12069   0.12072   0.12494

 Mulliken charges:
               1
     1  C    0.015107
     2  H    0.039623
     3  C    0.015097
     4  H    0.039626
     5  C   -0.078634
     6  C   -0.003547
     7  C   -0.003551
     8  C   -0.078622
     9  N   -0.150925
    10  C    0.006429
    11  C   -0.136186
    12  C    0.293917
    13  C   -0.089597
    14  C    0.005214
    15  C   -0.078487
    16  C    0.275845
    17  F   -0.197758
    18  F   -0.171852
    19  N   -0.150921
    20  C    0.006452
    21  C   -0.136221
    22  C    0.293919
    23  C   -0.089609
    24  C    0.005217
    25  C   -0.078483
    26  C    0.275842
    27  F   -0.197759
    28  F   -0.171840
    29  H    0.053729
    30  H    0.040970
    31  H    0.028372
    32  H    0.033617
    33  H    0.033617
    34  H    0.028370
    35  H    0.040955
    36  H    0.053745
    37  H    0.013632
    38  H    0.031768
    39  H    0.038459
    40  H    0.030301
    41  H    0.013631
    42  H    0.031775
    43  H    0.038459
    44  H    0.030302
 Sum of Mulliken charges =  -0.00000

 Dipole moment (field-independent basis, Debye):
    X=              0.0001    Y=              0.0915    Z=              0.0008  Tot=              0.0915
 Quadrupole moment (field-independent basis, Debye-Ang):
   XX=           -124.3152   YY=           -131.1377   ZZ=           -150.0000
   XY=              0.0003   XZ=              3.1857   YZ=             -0.0025

  Exact polarizability: 311.206   0.006 270.693  27.792  -0.019 132.299
 Approx polarizability: 429.370   0.009 378.091  59.498  -0.044 211.486

 Summary of Natural Population Analysis:

                                       Natural Population
                Natural  -----------------------------------------------
    Atom  No    Charge         Core      Valence    Rydberg      Total
 -----------------------------------------------------------------------
      C    1   -0.05246      1.99894     4.02993    0.02358     6.05246
      H    2    0.24817      0.00000     0.74735    0.00448     0.75183
      C    3   -0.05246      1.99894     4.02993    0.02358     6.05246
      H    4    0.24817      0.00000     0.74735    0.00448     0.75183
      C    5   -0.48780      1.99911     4.47444    0.01426     6.48780
      C    6   -0.43871      1.99912     4.42540    0.01419     6.43871
      C    7   -0.43870      1.99912     4.42539    0.01419     6.43870
      C    8   -0.48780      1.99911     4.47444    0.01426     6.48780
      N    9   -0.43464      1.99925     5.41533    0.02006     7.43464
      C   10    0.08248      1.99909     3.88848    0.02995     5.91752
      C   11   -0.22825      1.99878     4.21114    0.01834     6.22825
      C   12    0.49019      1.99837     3.48058    0.03086     5.50981
      C   13   -0.31703      1.99890     4.30203    0.01610     6.31703
      C   14   -0.19412      1.99899     4.18101    0.01412     6.19412
      C   15   -0.32135      1.99889     4.30627    0.01619     6.32135
      C   16    0.47286      1.99837     3.49954    0.02924     5.52714
      F   17   -0.34206      1.99989     7.33715    0.00502     9.34206
      F   18   -0.32083      1.99989     7.31563    0.00531     9.32083
      N   19   -0.43465      1.99925     5.41534    0.02006     7.43465
      C   20    0.08248      1.99909     3.88848    0.02995     5.91752
      C   21   -0.22825      1.99878     4.21114    0.01834     6.22825
      C   22    0.49019      1.99837     3.48058    0.03086     5.50981
      C   23   -0.31703      1.99890     4.30204    0.01610     6.31703
      C   24   -0.19411      1.99899     4.18100    0.01412     6.19411
      C   25   -0.32135      1.99889     4.30627    0.01619     6.32135
      C   26    0.47286      1.99837     3.49954    0.02924     5.52714
      F   27   -0.34207      1.99989     7.33715    0.00502     9.34207
      F   28   -0.32083      1.99989     7.31562    0.00531     9.32083
      H   29    0.24230      0.00000     0.75427    0.00343     0.75770
      H   30    0.22781      0.00000     0.76797    0.00422     0.77219
      H   31    0.22087      0.00000     0.77520    0.00392     0.77913
      H   32    0.23487      0.00000     0.76177    0.00336     0.76513
      H   33    0.23487      0.00000     0.76177    0.00336     0.76513
      H   34    0.22087      0.00000     0.77521    0.00392     0.77913
      H   35    0.22782      0.00000     0.76796    0.00422     0.77218
      H   36    0.24230      0.00000     0.75427    0.00343     0.75770
      H   37    0.18005      0.00000     0.81264    0.00731     0.81995
      H   38    0.24988      0.00000     0.74702    0.00310     0.75012
      H   39    0.23877      0.00000     0.75855    0.00269     0.76123
      H   40    0.24899      0.00000     0.74797    0.00304     0.75101
      H   41    0.18005      0.00000     0.81264    0.00731     0.81995
      H   42    0.24988      0.00000     0.74702    0.00310     0.75012
      H   43    0.23877      0.00000     0.75855    0.00269     0.76123
      H   44    0.24899      0.00000     0.74797    0.00304     0.75101
 =======================================================================
   * Total *   -0.00000     51.97517   135.47930    0.54554   188.00000

 ******    1 imaginary frequencies (negative Signs) ******

                      1                      2                      3
                      A                      A                      A
 Frequencies --    -39.2811                11.1989                23.2077
 Red. masses --      4.1048                 9.3881                 8.1563
 Frc consts  --      0.0037                 0.0007                 0.0026
 IR Inten    --      0.1576                 0.3340                 0.1382

                      4                      5                      6
                      A                      A                      A
 Frequencies --     30.0213                45.0972                59.8752
 Red. masses --      6.1367                 4.9223                 4.9349
 Frc consts  --      0.0033                 0.0059                 0.0104
 IR Inten    --      0.0090                 1.5664                 6.3971

                      7                      8                      9
                      A                      A                      A
 Frequencies --     63.5442                74.2342               101.0686
 Red. masses --      5.3090                 5.6861                 3.6461
 Frc consts  --      0.0126                 0.0185                 0.0219
 IR Inten    --      0.0000                 4.4583                 0.0000

                     10                     11                     12
                      A                      A                      A
 Frequencies --    123.6013               147.6763               169.4101
 Red. masses --      5.7721                 3.6069                 5.2596
 Frc consts  --      0.0520                 0.0463                 0.0889
 IR Inten    --      0.2217                10.8012                 0.7455

                     13                     14                     15
                      A                      A                      A
 Frequencies --    198.0374               208.5746               228.4496
 Red. masses --      6.2134                 3.0975                 9.3836
 Frc consts  --      0.1436                 0.0794                 0.2885
 IR Inten    --      0.2249                 0.4813                 0.0320

                     16                     17                     18
                      A                      A                      A
 Frequencies --    246.1798               246.1983               296.2187
 Red. masses --      4.7007                 4.7029                 6.9541
 Frc consts  --      0.1678                 0.1680                 0.3595
 IR Inten    --      0.0090                 0.0000                 1.2324

                     19                     20                     21
                      A                      A                      A
 Frequencies --    314.5063               318.3256               364.9870
 Red. masses --      3.3920                 2.8742                 2.3800
 Frc consts  --      0.1977                 0.1716                 0.1868
 IR Inten    --      8.0867                 0.0780                 0.0514

                     22                     23                     24
                      A                      A                      A
 Frequencies --    366.2692               377.2592               403.0346
 Red. masses --      9.3684                11.1042                 6.8920
 Frc consts  --      0.7405                 0.9311                 0.6596
 IR Inten    --      6.7747                 3.2525                 0.3734

                     25                     26                     27
                      A                      A                      A
 Frequencies --    431.1125               448.4978               450.5084
 Red. masses --      3.5238                 3.0744                 3.9283
 Frc consts  --      0.3859                 0.3644                 0.4697
 IR Inten    --      2.2580                 0.0021                 4.2873

                     28                     29                     30
                      A                      A                      A
 Frequencies --    476.5190               508.2709               520.6122
 Red. masses --      3.9892                 6.9055                 6.8163
 Frc consts  --      0.5337                 1.0511                 1.0885
 IR Inten    --      6.8597                 6.8617                 2.6255

                     31                     32                     33
                      A                      A                      A
 Frequencies --    521.7114               535.5818               536.6171
 Red. masses --      6.9051                 2.9032                 3.9174
 Frc consts  --      1.1073                 0.4906                 0.6646
 IR Inten    --      4.7034                 4.2840                 2.2613

                     34                     35                     36
                      A                      A                      A
 Frequencies --    553.7569               578.1104               578.6815
 Red. masses --      4.4210                 4.5747                 5.4609
 Frc consts  --      0.7988                 0.9008                 1.0774
 IR Inten    --      1.3510                 6.9767                 3.2567

                     37                     38                     39
                      A                      A                      A
 Frequencies --    625.6002               625.6325               640.3349
 Red. masses --      4.6227                 4.7288                 3.7925
 Frc consts  --      1.0660                 1.0905                 0.9162
 IR Inten    --      0.7119                 0.0472                 1.3854

                     40                     41                     42
                      A                      A                      A
 Frequencies --    640.3893               732.6220               737.4019
 Red. masses --      4.8659                 2.5923                 2.4255
 Frc consts  --      1.1757                 0.8198                 0.7771
 IR Inten    --      9.4807                 0.1363                22.7223

                     43                     44                     45
                      A                      A                      A
 Frequencies --    760.3236               760.9085               789.7987
 Red. masses --      4.0109                 5.1421                 2.0937
 Frc consts  --      1.3661                 1.7541                 0.7695
 IR Inten    --      1.2020                10.4678                 1.5408

                     46                     47                     48
                      A                      A                      A
 Frequencies --    806.7646               806.7857               871.7203
 Red. masses --      1.9906                 2.0156                 2.0151
 Frc consts  --      0.7633                 0.7730                 0.9022
 IR Inten    --      4.3089                94.2099                 0.7444

                     49                     50                     51
                      A                      A                      A
 Frequencies --    874.2504               881.6495               885.1463
 Red. masses --      1.7834                 3.9324                 2.9730
 Frc consts  --      0.8031                 1.8010                 1.3724
 IR Inten    --      8.0321                 0.4636                29.2563

                     52                     53                     54
                      A                      A                      A
 Frequencies --    901.1979               901.2183               919.1502
 Red. masses --      1.4384                 1.4383                 2.3595
 Frc consts  --      0.6883                 0.6883                 1.1745
 IR Inten    --      0.0179                 0.0230                 0.1477

                     55                     56                     57
                      A                      A                      A
 Frequencies --    932.0423               988.2254               990.4266
 Red. masses --      1.8525                 1.5055                 1.4229
 Frc consts  --      0.9482                 0.8663                 0.8224
 IR Inten    --      8.1790                 0.3853                 0.4729

                     58                     59                     60
                      A                      A                      A
 Frequencies --    993.7301               994.5858              1003.5152
 Red. masses --      1.3580                 1.4415                 1.9890
 Frc consts  --      0.7901                 0.8402                 1.1801
 IR Inten    --      2.7719                 0.9950                10.9714

                     61                     62                     63
                      A                      A                      A
 Frequencies --   1030.1524              1062.1692              1066.4582
 Red. masses --      4.4924                 3.6064                 1.3302
 Frc consts  --      2.8089                 2.3973                 0.8914
 IR Inten    --     54.8796                64.5802                 8.6925

                     64                     65                     66
                      A                      A                      A
 Frequencies --   1074.9797              1085.0911              1085.7648
 Red. masses --      2.4498                 1.5799                 1.5600
 Frc consts  --      1.6680                 1.0960                 1.0836
 IR Inten    --     18.8129                 5.1919                 0.5571

                     67                     68                     69
                      A                      A                      A
 Frequencies --   1087.8065              1097.2137              1137.8254
 Red. masses --      1.6865                 2.5383                 2.0811
 Frc consts  --      1.1758                 1.8005                 1.5875
 IR Inten    --      3.2470                39.3787                 2.0990

                     70                     71                     72
                      A                      A                      A
 Frequencies --   1146.3331              1159.9846              1162.3480
 Red. masses --      2.4917                 1.2758                 1.2324
 Frc consts  --      1.9292                 1.0114                 0.9810
 IR Inten    --      0.0330                 0.1722                 0.1596

                     73                     74                     75
                      A                      A                      A
 Frequencies --   1168.4568              1228.8123              1247.0240
 Red. masses --      1.7384                 1.4125                 1.3753
 Frc consts  --      1.3984                 1.2566                 1.2601
 IR Inten    --      0.7243                 0.1217                12.6666

                     76                     77                     78
                      A                      A                      A
 Frequencies --   1260.8003              1270.5893              1272.5370
 Red. masses --      1.5271                 2.7630                 1.8130
 Frc consts  --      1.4302                 2.6281                 1.7297
 IR Inten    --      5.4956                 7.1106                40.6295

                     79                     80                     81
                      A                      A                      A
 Frequencies --   1272.7810              1273.7759              1303.0346
 Red. masses --      1.7732                 2.2681                 1.2871
 Frc consts  --      1.6924                 2.1682                 1.2876
 IR Inten    --     37.8476                 3.8027                 7.0834

                     82                     83                     84
                      A                      A                      A
 Frequencies --   1309.5653              1312.9825              1335.0013
 Red. masses --      1.2638                 1.2367                 1.4993
 Frc consts  --      1.2770                 1.2561                 1.5744
 IR Inten    --     32.6118                 5.9664                 0.2497

                     85                     86                     87
                      A                      A                      A
 Frequencies --   1353.8415              1354.5293              1359.7572
 Red. masses --      4.9171                 5.0278                 1.4869
 Frc consts  --      5.3100                 5.4351                 1.6198
 IR Inten    --     36.2369                17.1808                 0.2273

                     88                     89                     90
                      A                      A                      A
 Frequencies --   1381.7291              1391.0204              1394.1016
 Red. masses --      1.6336                 1.7167                 2.0848
 Frc consts  --      1.8376                 1.9571                 2.3873
 IR Inten    --      6.3345                 2.7349                27.9414

                     91                     92                     93
                      A                      A                      A
 Frequencies --   1403.0907              1404.4807              1442.0012
 Red. masses --      5.7168                 4.5231                 1.5472
 Frc consts  --      6.6309                 5.2568                 1.8955
 IR Inten    --      9.6650                 4.2599                16.9478

                     94                     95                     96
                      A                      A                      A
 Frequencies --   1442.0370              1453.7017              1457.9286
 Red. masses --      1.5311                 1.1152                 1.1062
 Frc consts  --      1.8759                 1.3886                 1.3854
 IR Inten    --      7.7748                 7.8572                 4.1059

                     97                     98                     99
                      A                      A                      A
 Frequencies --   1463.4573              1477.1445              1527.2777
 Red. masses --      1.0971                 1.1161                 4.1952
 Frc consts  --      1.3844                 1.4349                 5.7656
 IR Inten    --      5.6693                 0.3853                66.2282

                    100                    101                    102
                      A                      A                      A
 Frequencies --   1527.6253              1543.2979              1544.9535
 Red. masses --      4.2286                 4.6929                 4.6785
 Frc consts  --      5.8141                 6.5856                 6.5794
 IR Inten    --     86.9922                38.6619                41.2955

                    103                    104                    105
                      A                      A                      A
 Frequencies --   1673.9034              1675.1410              1716.2449
 Red. masses --      7.9296                 7.9459                 8.8014
 Frc consts  --     13.0906                13.1369                15.2743
 IR Inten    --     58.7538               107.2500                86.0241

                    106                    107                    108
                      A                      A                      A
 Frequencies --   1716.5869              1754.3841              1758.7024
 Red. masses --      8.8100                 8.8358                 8.6901
 Frc consts  --     15.2952                16.0230                15.8364
 IR Inten    --    107.7904               179.1883                11.9600

                    109                    110                    111
                      A                      A                      A
 Frequencies --   3032.2644              3039.9518              3044.6028
 Red. masses --      1.0828                 1.0729                 1.0640
 Frc consts  --      5.8659                 5.8417                 5.8113
 IR Inten    --      0.0027                 6.5207                 1.3709

                    112                    113                    114
                      A                      A                      A
 Frequencies --   3049.5046              3051.9968              3054.6159
 Red. masses --      1.0766                 1.0683                 1.0632
 Frc consts  --      5.8988                 5.8629                 5.8449
 IR Inten    --     35.7695                25.7163                41.6990

                    115                    116                    117
                      A                      A                      A
 Frequencies --   3110.1969              3110.9629              3114.8873
 Red. masses --      1.1011                 1.1012                 1.1006
 Frc consts  --      6.2754                 6.2791                 6.2919
 IR Inten    --     40.4636                 3.3513                41.3324

                    118                    119                    120
                      A                      A                      A
 Frequencies --   3119.6273              3139.8545              3140.2448
 Red. masses --      1.1053                 1.0840                 1.0839
 Frc consts  --      6.3377                 6.2962                 6.2977
 IR Inten    --     32.2145                 4.6451                33.3150

                    121                    122                    123
                      A                      A                      A
 Frequencies --   3224.9475              3224.9671              3246.8640
 Red. masses --      1.0894                 1.0894                 1.0943
 Frc consts  --      6.6754                 6.6754                 6.7968
 IR Inten    --      1.7342                 1.9783                 0.2044

                    124                    125                    126
                      A                      A                      A
 Frequencies --   3246.9050              3250.7723              3250.8189
 Red. masses --      1.0943                 1.0987                 1.0987
 Frc consts  --      6.7971                 6.8408                 6.8409
 IR Inten    --      0.1928                 0.0750                 0.0572

 - Thermochemistry -
 -------------------
 Temperature   298.150 Kelvin.  Pressure   1.00000 Atm.
 Atom     1 has atomic number  6 and mass  12.00000

 Molecular mass:   362.14061 amu.
 Principal axes and moments of inertia in atomic units:
                           1         2         3
     Eigenvalues --  6474.13897********************
           X            1.00000   0.00000   0.00085
           Y           -0.00000   1.00000   0.00001
           Z           -0.00085  -0.00001   1.00000
 This molecule is an asymmetric top.
 Rotational symmetry number  1.
 Warning -- assumption of classical behavior for rotation
           may cause significant error
 Rotational temperatures (Kelvin)      0.01338     0.00518     0.00388
 Rotational constants (GHZ):           0.27876     0.10793     0.08075
    1 imaginary frequencies ignored.
 Zero-point vibrational energy     907623.4 (Joules/Mol)
                                  216.92720 (Kcal/Mol)
 Warning -- explicit consideration of  35 degrees of freedom as
           vibrations may cause significant error
 Vibrational temperatures:     16.11    33.39    43.19    64.88    86.15
          (Kelvin)             91.43   106.81   145.42   177.83   212.47
                              243.74   284.93   300.09   328.69   354.20
                              354.22   426.19   452.50   458.00   525.13
                              526.98   542.79   579.88   620.27   645.29
                              648.18   685.60   731.29   749.04   750.63
                              770.58   772.07   796.73   831.77   832.59
                              900.10   900.15   921.30   921.38  1054.08
                             1060.96  1093.94  1094.78  1136.34  1160.75
                             1160.78  1254.21  1257.85  1268.50  1273.53
                             1296.62  1296.65  1322.45  1341.00  1421.84
                             1425.00  1429.76  1430.99  1443.83  1482.16
                             1528.22  1534.40  1546.66  1561.20  1562.17
                             1565.11  1578.65  1637.08  1649.32  1668.96
                             1672.36  1681.15  1767.99  1794.19  1814.01
                             1828.09  1830.90  1831.25  1832.68  1874.78
                             1884.17  1889.09  1920.77  1947.88  1948.87
                             1956.39  1988.00  2001.37  2005.80  2018.73
                             2020.73  2074.72  2074.77  2091.55  2097.63
                             2105.59  2125.28  2197.41  2197.91  2220.46
                             2222.84  2408.37  2410.15  2469.29  2469.79
                             2524.17  2530.38  4362.75  4373.81  4380.50
                             4387.56  4391.14  4394.91  4474.88  4475.98
                             4481.63  4488.45  4517.55  4518.11  4639.98
                             4640.01  4671.51  4671.57  4677.14  4677.20

 Zero-point correction=                           0.345696 (Hartree/Particle)
 Thermal correction to Energy=                    0.367329
 Thermal correction to Enthalpy=                  0.368273
 Thermal correction to Gibbs Free Energy=         0.291775
 Sum of electronic and zero-point Energies=          -1279.153705
 Sum of electronic and thermal Energies=             -1279.132072
 Sum of electronic and thermal Enthalpies=           -1279.131128
 Sum of electronic and thermal Free Energies=        -1279.207625

                     E (Thermal)             CV                S
                      KCal/Mol        Cal/Mol-Kelvin    Cal/Mol-Kelvin
 Total                  230.502             84.197            161.003
 Electronic               0.000              0.000              0.000
 Translational            0.889              2.981             43.554
 Rotational               0.889              2.981             36.135
 Vibrational            228.725             78.235             81.314
 Vibration     1          0.593              1.987              7.786
 Vibration     2          0.593              1.985              6.339
 Vibration     3          0.594              1.984              5.828
 Vibration     4          0.595              1.979              5.022
 Vibration     5          0.597              1.973              4.461
 Vibration     6          0.597              1.972              4.344
 Vibration     7          0.599              1.966              4.038
 Vibration     8          0.604              1.948              3.434
 Vibration     9          0.610              1.929              3.043
 Vibration    10          0.617              1.905              2.702
 Vibration    11          0.625              1.880              2.442
 Vibration    12          0.637              1.843              2.151
 Vibration    13          0.642              1.828              2.056
 Vibration    14          0.651              1.798              1.891
 Vibration    15          0.661              1.769              1.758
 Vibration    16          0.661              1.769              1.758
 Vibration    17          0.690              1.681              1.438
 Vibration    18          0.702              1.646              1.339
 Vibration    19          0.705              1.639              1.319
 Vibration    20          0.738              1.544              1.101
 Vibration    21          0.739              1.542              1.095
 Vibration    22          0.748              1.519              1.050
 Vibration    23          0.768              1.464              0.952
 Vibration    24          0.792              1.402              0.855
 Vibration    25          0.808              1.364              0.800
 Vibration    26          0.809              1.360              0.794
 Vibration    27          0.833              1.302              0.720
 Vibration    28          0.863              1.232              0.638
 Vibration    29          0.876              1.204              0.609
 Vibration    30          0.877              1.202              0.606
 Vibration    31          0.891              1.171              0.575
 Vibration    32          0.892              1.169              0.573
 Vibration    33          0.909              1.131              0.536
 Vibration    34          0.935              1.079              0.489
 Vibration    35          0.935              1.077              0.488

 Normal termination of Gaussian 16 at Thu Dec  8 09:36:48 2022.
