 Gaussian 16, Revision A.03,
 Gaussian 16:  ES64L-G16RevA.03 25-Dec-2016

 ----------------------------------------------------------------------
 #p pop=(regular,nbo,savenbos) freq=noraman def2svp empiricaldispersion
 =gd3bj output=wfx pbe1pbe
 ----------------------------------------------------------------------

 ------
 08_lig
 ------
 Symbolic Z-matrix:
 Charge =  0 Multiplicity = 1

                         Standard orientation:
 ---------------------------------------------------------------------
 Center     Atomic      Atomic             Coordinates (Angstroms)
 Number     Number       Type             X           Y           Z
 ---------------------------------------------------------------------
      1          6           0        0.702973    2.642690   -0.577398
      2          1           0        0.357635    2.646686   -1.629494
      3          6           0       -0.572878    2.630841    0.289076
      4          1           0       -0.249776    2.582590    1.347964
      5          6           0       -1.372775    3.913686    0.056519
      6          6           0       -0.539577    5.164334    0.296253
      7          6           0        0.721784    5.154606   -0.555933
      8          6           0        1.535776    3.889137   -0.316340
      9          7           0       -1.343854    1.439268   -0.016033
     10          6           0       -2.430802    1.199998    0.602312
     11          6           0       -3.259534    0.024974    0.348230
     12          6           0       -3.089510   -0.764055   -0.800545
     13          6           0       -3.870592   -1.892525   -0.998256
     14          6           0       -4.833353   -2.238248   -0.046323
     15          6           0       -5.029709   -1.458927    1.093434
     16          6           0       -4.245340   -0.326921    1.278601
     17         17           0       -5.804345   -3.646298   -0.290309
     18          7           0        1.389718    1.373917   -0.435706
     19          6           0        2.615973    1.259837   -0.110726
     20          6           0        3.327763   -0.014651   -0.062742
     21          6           0        2.946566   -1.101404   -0.863790
     22          6           0        3.629883   -2.305876   -0.783927
     23          6           0        4.701811   -2.428920    0.101818
     24          6           0        5.113322   -1.352198    0.888520
     25          6           0        4.432009   -0.146198    0.789408
     26         17           0        5.548154   -3.930533    0.210994
     27          1           0       -2.261308    3.915631    0.706377
     28          1           0       -1.743619    3.896300   -0.983157
     29          1           0       -0.260269    5.220225    1.363499
     30          1           0       -1.142162    6.061538    0.085317
     31          1           0        1.338908    6.042245   -0.347559
     32          1           0        0.444223    5.210267   -1.622929
     33          1           0        1.896935    3.878883    0.728189
     34          1           0        2.426876    3.884032   -0.964412
     35          1           0       -2.796216    1.878032    1.395570
     36          1           0       -2.353214   -0.481035   -1.560130
     37          1           0       -3.742236   -2.508241   -1.889591
     38          1           0       -5.789523   -1.744982    1.821847
     39          1           0       -4.390147    0.286659    2.171906
     40          1           0        3.207215    2.151434    0.151354
     41          1           0        2.136708   -0.989243   -1.592212
     42          1           0        3.341028   -3.152421   -1.408053
     43          1           0        5.960655   -1.468090    1.565469
     44          1           0        4.749747    0.702234    1.401435
 ---------------------------------------------------------------------

 SCF Done:  E(RPBE1PBE) =  -1801.84980654     A.U. after   15 cycles

 The electronic state is 1-A.
 Alpha  occ. eigenvalues -- -101.68272-101.68122 -14.38195 -14.37874 -10.30083
 Alpha  occ. eigenvalues --  -10.29897 -10.27768 -10.27439 -10.26686 -10.26157
 Alpha  occ. eigenvalues --  -10.25543 -10.25376 -10.25363 -10.25232 -10.25208
 Alpha  occ. eigenvalues --  -10.25198 -10.25050 -10.25042 -10.24986 -10.24889
 Alpha  occ. eigenvalues --  -10.23851 -10.23730 -10.23665 -10.23484  -9.53504
 Alpha  occ. eigenvalues --   -9.53357  -7.27627  -7.27480  -7.26664  -7.26619
 Alpha  occ. eigenvalues --   -7.26516  -7.26472  -0.95480  -0.93435  -0.91883
 Alpha  occ. eigenvalues --   -0.91662  -0.86884  -0.86219  -0.84718  -0.78454
 Alpha  occ. eigenvalues --   -0.77950  -0.77824  -0.77710  -0.75313  -0.74132
 Alpha  occ. eigenvalues --   -0.66680  -0.66101  -0.64239  -0.64010  -0.62554
 Alpha  occ. eigenvalues --   -0.61381  -0.58922  -0.57849  -0.56948  -0.53135
 Alpha  occ. eigenvalues --   -0.52589  -0.52188  -0.51082  -0.48668  -0.48370
 Alpha  occ. eigenvalues --   -0.47850  -0.47445  -0.46995  -0.46676  -0.45496
 Alpha  occ. eigenvalues --   -0.44905  -0.44767  -0.44680  -0.43494  -0.42146
 Alpha  occ. eigenvalues --   -0.41995  -0.41625  -0.41113  -0.39411  -0.38514
 Alpha  occ. eigenvalues --   -0.37991  -0.37543  -0.37480  -0.36952  -0.36406
 Alpha  occ. eigenvalues --   -0.35834  -0.35479  -0.34187  -0.33381  -0.32417
 Alpha  occ. eigenvalues --   -0.32283  -0.31508  -0.31113  -0.28234  -0.28109
 Alpha  occ. eigenvalues --   -0.26121  -0.25194  -0.24772  -0.24027
 Alpha virt. eigenvalues --   -0.05157  -0.04436  -0.01600  -0.01491   0.03674
 Alpha virt. eigenvalues --    0.04064   0.05034   0.05195   0.05997   0.06966
 Alpha virt. eigenvalues --    0.08199   0.09418   0.10558   0.10914   0.11701

 Mulliken charges:
               1
     1  C    0.054401
     2  H    0.032065
     3  C   -0.031236
     4  H    0.026497
     5  C   -0.018315
     6  C   -0.040237
     7  C   -0.013928
     8  C   -0.063144
     9  N   -0.164864
    10  C    0.040983
    11  C    0.007150
    12  C    0.002108
    13  C    0.017138
    14  C    0.004860
    15  C    0.022276
    16  C   -0.033303
    17  Cl  -0.092887
    18  N   -0.179791
    19  C    0.004078
    20  C    0.016454
    21  C    0.005693
    22  C    0.013350
    23  C    0.004773
    24  C    0.021007
    25  C   -0.029198
    26  Cl  -0.094543
    27  H    0.038456
    28  H    0.034362
    29  H    0.028522
    30  H    0.038981
    31  H    0.034340
    32  H    0.029102
    33  H    0.035057
    34  H    0.049448
    35  H   -0.005893
    36  H    0.037028
    37  H    0.024268
    38  H    0.022763
    39  H    0.020223
    40  H    0.003474
    41  H    0.033354
    42  H    0.024133
    43  H    0.022166
    44  H    0.018829
 Sum of Mulliken charges =  -0.00000

 Dipole moment (field-independent basis, Debye):
    X=              0.0183    Y=              3.9359    Z=              0.9698  Tot=              4.0537
 Quadrupole moment (field-independent basis, Debye-Ang):
   XX=           -157.9578   YY=           -150.2393   ZZ=           -148.1152
   XY=              2.1950   XZ=             -1.8363   YZ=              4.7652

  Exact polarizability: 295.386  10.583 318.221   6.103  17.120 178.955
 Approx polarizability: 391.543  19.743 424.733  13.179  33.583 304.785

 Summary of Natural Population Analysis:

                                       Natural Population
                Natural  -----------------------------------------------
    Atom  No    Charge         Core      Valence    Rydberg      Total
 -----------------------------------------------------------------------
      C    1   -0.05734      1.99895     4.03320    0.02519     6.05734
      H    2    0.24829      0.00000     0.74684    0.00488     0.75171
      C    3   -0.05562      1.99894     4.03341    0.02327     6.05562
      H    4    0.22816      0.00000     0.76614    0.00570     0.77184
      C    5   -0.45897      1.99909     4.44475    0.01513     6.45897
      C    6   -0.44512      1.99911     4.43209    0.01392     6.44512
      C    7   -0.43973      1.99912     4.42658    0.01402     6.43973
      C    8   -0.48329      1.99910     4.47009    0.01410     6.48329
      N    9   -0.46453      1.99926     5.44491    0.02037     7.46453
      C   10    0.12239      1.99907     3.85216    0.02638     5.87761
      C   11   -0.11240      1.99886     4.09655    0.01698     6.11240
      C   12   -0.17229      1.99892     4.15765    0.01571     6.17229
      C   13   -0.24064      1.99883     4.22512    0.01670     6.24064
      C   14   -0.02690      1.99862     4.00375    0.02453     6.02690
      C   15   -0.24293      1.99882     4.22728    0.01683     6.24293
      C   16   -0.19227      1.99892     4.17870    0.01465     6.19227
     Cl   17   -0.00286      9.99957     6.98687    0.01642    17.00286
      N   18   -0.45892      1.99924     5.43953    0.02016     7.45892
      C   19    0.10788      1.99904     3.86690    0.02618     5.89212
      C   20   -0.10751      1.99886     4.09155    0.01710     6.10751
      C   21   -0.17594      1.99892     4.16130    0.01572     6.17594
      C   22   -0.24056      1.99882     4.22503    0.01670     6.24056
      C   23   -0.02874      1.99862     4.00562    0.02451     6.02874
      C   24   -0.24260      1.99883     4.22696    0.01682     6.24260
      C   25   -0.19379      1.99892     4.18029    0.01458     6.19379
     Cl   26   -0.00414      9.99957     6.98813    0.01645    17.00414
      H   27    0.23541      0.00000     0.76158    0.00302     0.76459
      H   28    0.22965      0.00000     0.76551    0.00484     0.77035
      H   29    0.22071      0.00000     0.77536    0.00394     0.77929
      H   30    0.23679      0.00000     0.75992    0.00330     0.76321
      H   31    0.23493      0.00000     0.76172    0.00335     0.76507
      H   32    0.22196      0.00000     0.77409    0.00395     0.77804
      H   33    0.22458      0.00000     0.77128    0.00415     0.77542
      H   34    0.24093      0.00000     0.75564    0.00343     0.75907
      H   35    0.16345      0.00000     0.83058    0.00597     0.83655
      H   36    0.25518      0.00000     0.74084    0.00398     0.74482
      H   37    0.24750      0.00000     0.74925    0.00325     0.75250
      H   38    0.24755      0.00000     0.74918    0.00327     0.75245
      H   39    0.23432      0.00000     0.76263    0.00305     0.76568
      H   40    0.16620      0.00000     0.82735    0.00645     0.83380
      H   41    0.25226      0.00000     0.74387    0.00387     0.74774
      H   42    0.24746      0.00000     0.74928    0.00326     0.75254
      H   43    0.24698      0.00000     0.74974    0.00328     0.75302
      H   44    0.23454      0.00000     0.76247    0.00299     0.76546
 =======================================================================
   * Total *   -0.00000     63.97600   123.50168    0.52232   188.00000

 ******    1 imaginary frequencies (negative Signs) ******

                      1                      2                      3
                      A                      A                      A
 Frequencies --    -47.8438                11.0431                22.8819
 Red. masses --      3.4269                12.1239                 4.0896
 Frc consts  --      0.0046                 0.0009                 0.0013
 IR Inten    --      2.5417                 0.0555                 1.7168

                      4                      5                      6
                      A                      A                      A
 Frequencies --     35.8118                49.8355                52.3219
 Red. masses --      6.0834                 5.0328                 5.3466
 Frc consts  --      0.0046                 0.0074                 0.0086
 IR Inten    --      0.4330                 0.0879                 0.1919

                      7                      8                      9
                      A                      A                      A
 Frequencies --     78.7713                84.2727               114.3284
 Red. masses --      5.3118                 4.0251                 3.2917
 Frc consts  --      0.0194                 0.0168                 0.0253
 IR Inten    --      2.1176                 1.6954                 1.5938

                     10                     11                     12
                      A                      A                      A
 Frequencies --    127.9398               138.4902               165.8467
 Red. masses --      4.0594                 5.2680                 3.5828
 Frc consts  --      0.0391                 0.0595                 0.0581
 IR Inten    --      5.2225                 0.4950                 1.6822

                     13                     14                     15
                      A                      A                      A
 Frequencies --    180.4592               204.5145               228.4918
 Red. masses --      5.6273                 7.5274                 3.3468
 Frc consts  --      0.1080                 0.1855                 0.1029
 IR Inten    --      0.2357                 0.8390                 2.6315

                     16                     17                     18
                      A                      A                      A
 Frequencies --    267.7610               294.4405               320.6988
 Red. masses --      6.5301                 4.8890                 2.9775
 Frc consts  --      0.2758                 0.2497                 0.1804
 IR Inten    --      0.4094                 1.2128                 0.9092

                     19                     20                     21
                      A                      A                      A
 Frequencies --    333.0787               335.6531               383.7097
 Red. masses --      3.0034                 2.8335                 3.6710
 Frc consts  --      0.1963                 0.1881                 0.3185
 IR Inten    --      3.3885                 2.8095                 5.2099

                     22                     23                     24
                      A                      A                      A
 Frequencies --    397.8732               408.5710               421.4390
 Red. masses --      6.0866                 5.6064                 2.9553
 Frc consts  --      0.5677                 0.5514                 0.3093
 IR Inten    --      9.1151                 7.7707                 0.0559

                     25                     26                     27
                      A                      A                      A
 Frequencies --    424.2368               432.6405               453.0047
 Red. masses --      3.0277                 4.1782                 3.1920
 Frc consts  --      0.3211                 0.4608                 0.3859
 IR Inten    --      0.1135                 3.2631                 1.2224

                     28                     29                     30
                      A                      A                      A
 Frequencies --    482.1143               490.9520               506.2086
 Red. masses --      3.7781                 3.1797                 3.3031
 Frc consts  --      0.5174                 0.4516                 0.4987
 IR Inten    --      1.1456                24.9327                 3.2158

                     31                     32                     33
                      A                      A                      A
 Frequencies --    535.6954               539.4719               610.5748
 Red. masses --      2.7775                 2.8010                 4.1197
 Frc consts  --      0.4696                 0.4803                 0.9049
 IR Inten    --      6.7445                11.3431                12.5067

                     34                     35                     36
                      A                      A                      A
 Frequencies --    623.4862               642.9733               645.0584
 Red. masses --      3.6600                 7.0135                 6.7253
 Frc consts  --      0.8383                 1.7083                 1.6488
 IR Inten    --      7.4909                 0.4156                 1.0161

                     37                     38                     39
                      A                      A                      A
 Frequencies --    723.4641               728.2347               744.5682
 Red. masses --      4.4057                 5.0066                 3.7042
 Frc consts  --      1.3586                 1.5644                 1.2099
 IR Inten    --      0.9935                 4.5233                 0.8611

                     40                     41                     42
                      A                      A                      A
 Frequencies --    752.9804               799.6504               840.7032
 Red. masses --      3.9439                 1.9374                 1.4164
 Frc consts  --      1.3175                 0.7299                 0.5898
 IR Inten    --      1.7752                 0.4875                18.1610

                     43                     44                     45
                      A                      A                      A
 Frequencies --    842.6572               851.8097               856.7379
 Red. masses --      1.3706                 1.3574                 1.3821
 Frc consts  --      0.5734                 0.5803                 0.5977
 IR Inten    --     20.8973                11.6676                14.8236

                     46                     47                     48
                      A                      A                      A
 Frequencies --    864.9204               870.7406               886.0626
 Red. masses --      1.7894                 1.6970                 3.6314
 Frc consts  --      0.7887                 0.7581                 1.6798
 IR Inten    --     10.4477                12.1237                14.7600

                     49                     50                     51
                      A                      A                      A
 Frequencies --    894.8802               919.3139               934.9182
 Red. masses --      3.5226                 2.2148                 1.8888
 Frc consts  --      1.6621                 1.1028                 0.9727
 IR Inten    --     38.3782                 3.7339                 3.2806

                     52                     53                     54
                      A                      A                      A
 Frequencies --    971.4403               972.3694               987.8707
 Red. masses --      1.4602                 1.4813                 1.7387
 Frc consts  --      0.8119                 0.8252                 0.9997
 IR Inten    --      2.5937                 3.9821                 6.3466

                     55                     56                     57
                      A                      A                      A
 Frequencies --    995.4853              1005.2509              1007.1241
 Red. masses --      1.5102                 1.5442                 1.4555
 Frc consts  --      0.8817                 0.9194                 0.8698
 IR Inten    --      1.8649                 2.4614                 3.8636

                     58                     59                     60
                      A                      A                      A
 Frequencies --   1016.1379              1026.7492              1028.2969
 Red. masses --      1.5062                 2.5456                 2.5831
 Frc consts  --      0.9163                 1.5812                 1.6092
 IR Inten    --      3.7341                10.3102                11.2679

                     61                     62                     63
                      A                      A                      A
 Frequencies --   1061.3127              1071.8011              1086.0352
 Red. masses --      1.2662                 3.8767                 1.3689
 Frc consts  --      0.8403                 2.6239                 0.9513
 IR Inten    --      1.8633                41.9814                 0.4193

                     64                     65                     66
                      A                      A                      A
 Frequencies --   1105.0646              1122.2439              1122.8097
 Red. masses --      2.6222                 1.2602                 1.3568
 Frc consts  --      1.8866                 0.9351                 1.0078
 IR Inten    --     10.4365                 8.8937                26.0676

                     67                     68                     69
                      A                      A                      A
 Frequencies --   1131.2157              1132.9665              1133.4381
 Red. masses --      2.0059                 2.6979                 2.8001
 Frc consts  --      1.5123                 2.0404                 2.1194
 IR Inten    --      1.4365                40.0604                72.0942

                     70                     71                     72
                      A                      A                      A
 Frequencies --   1146.8951              1163.9916              1178.5732
 Red. masses --      2.5262                 1.9723                 1.1381
 Frc consts  --      1.9578                 1.5744                 0.9314
 IR Inten    --      0.0675                 7.6533                 1.7939

                     73                     74                     75
                      A                      A                      A
 Frequencies --   1180.5847              1233.2412              1250.8632
 Red. masses --      1.1390                 1.4443                 1.3821
 Frc consts  --      0.9353                 1.2942                 1.2742
 IR Inten    --      0.5024                 6.1375                 8.1470

                     76                     77                     78
                      A                      A                      A
 Frequencies --   1257.2360              1269.4773              1271.1962
 Red. masses --      1.3276                 1.8808                 1.8885
 Frc consts  --      1.2363                 1.7859                 1.7980
 IR Inten    --     15.0773                11.6330                12.4309

                     79                     80                     81
                      A                      A                      A
 Frequencies --   1292.3201              1300.0448              1301.2558
 Red. masses --      1.2687                 1.3869                 1.3885
 Frc consts  --      1.2484                 1.3810                 1.3853
 IR Inten    --      2.1417                15.4788                 9.4912

                     82                     83                     84
                      A                      A                      A
 Frequencies --   1308.4140              1318.7173              1349.9266
 Red. masses --      1.2541                 1.2015                 1.5971
 Frc consts  --      1.2649                 1.2311                 1.7147
 IR Inten    --     12.9224                22.1582                19.0037

                     85                     86                     87
                      A                      A                      A
 Frequencies --   1358.2225              1370.9312              1377.2397
 Red. masses --      1.5367                 1.8343                 4.4310
 Frc consts  --      1.6702                 2.0312                 4.9519
 IR Inten    --      7.7985                10.0228                 7.3091

                     88                     89                     90
                      A                      A                      A
 Frequencies --   1383.9943              1388.2494              1391.0326
 Red. masses --      3.6712                 1.7350                 1.9885
 Frc consts  --      4.1432                 1.9701                 2.2670
 IR Inten    --      0.8535                10.8043                18.2532

                     91                     92                     93
                      A                      A                      A
 Frequencies --   1409.4810              1414.4023              1452.4435
 Red. masses --      1.7894                 1.8952                 1.1032
 Frc consts  --      2.0945                 2.2338                 1.3712
 IR Inten    --      6.5988                14.1232                 1.8105

                     94                     95                     96
                      A                      A                      A
 Frequencies --   1456.2346              1457.2309              1457.4778
 Red. masses --      1.1054                 2.9370                 3.6719
 Frc consts  --      1.3812                 3.6746                 4.5957
 IR Inten    --      6.6481                 8.5440                 5.3740

                     97                     98                     99
                      A                      A                      A
 Frequencies --   1460.3941              1475.1076              1539.6217
 Red. masses --      1.1783                 1.1142                 3.0933
 Frc consts  --      1.4806                 1.4284                 4.3202
 IR Inten    --     14.8055                 2.4578                49.0667

                    100                    101                    102
                      A                      A                      A
 Frequencies --   1540.0110              1648.5161              1648.9484
 Red. masses --      3.0956                 7.6693                 7.7158
 Frc consts  --      4.3256                12.2798                12.3608
 IR Inten    --     58.5926                 2.5587                 8.5059

                    103                    104                    105
                      A                      A                      A
 Frequencies --   1689.0685              1691.0161              1753.4196
 Red. masses --      6.7949                 6.8261                 9.5383
 Frc consts  --     11.4217                11.5005                17.2781
 IR Inten    --     49.0770                42.9550               185.9490

                    106                    107                    108
                      A                      A                      A
 Frequencies --   1757.8466              3011.6385              3030.0267
 Red. masses --      9.4295                 1.0828                 1.0830
 Frc consts  --     17.1672                 5.7863                 5.8582
 IR Inten    --     77.2503                10.3896                 8.0537

                    109                    110                    111
                      A                      A                      A
 Frequencies --   3042.6030              3045.2474              3050.3579
 Red. masses --      1.0668                 1.0849                 1.0683
 Frc consts  --      5.8184                 5.9279                 5.8565
 IR Inten    --     26.2453                59.5427                22.7031

                    112                    113                    114
                      A                      A                      A
 Frequencies --   3055.5504              3058.9819              3090.6991
 Red. masses --      1.0644                 1.0640                 1.0843
 Frc consts  --      5.8551                 5.8662                 6.1027
 IR Inten    --     25.6280                22.5970                43.8174

                    115                    116                    117
                      A                      A                      A
 Frequencies --   3109.9747              3114.8759              3119.0294
 Red. masses --      1.1006                 1.0986                 1.1037
 Frc consts  --      6.2717                 6.2801                 6.3264
 IR Inten    --     28.8156                45.5368                21.9314

                    118                    119                    120
                      A                      A                      A
 Frequencies --   3124.2730              3202.3877              3202.8157
 Red. masses --      1.1040                 1.0919                 1.0918
 Frc consts  --      6.3490                 6.5975                 6.5985
 IR Inten    --     29.4592                 0.1214                 0.3847

                    121                    122                    123
                      A                      A                      A
 Frequencies --   3205.8552              3206.1208              3237.6098
 Red. masses --      1.0910                 1.0910                 1.0956
 Frc consts  --      6.6063                 6.6072                 6.7664
 IR Inten    --      3.8394                 4.2798                 0.8384

                    124                    125                    126
                      A                      A                      A
 Frequencies --   3239.1684              3239.4921              3239.7372
 Red. masses --      1.0956                 1.0961                 1.0961
 Frc consts  --      6.7728                 6.7773                 6.7784
 IR Inten    --      0.6037                 1.2522                 1.3514

 - Thermochemistry -
 -------------------
 Temperature   298.150 Kelvin.  Pressure   1.00000 Atm.
 Atom     1 has atomic number  6 and mass  12.00000

 Molecular mass:   358.10035 amu.
 Principal axes and moments of inertia in atomic units:
                           1         2         3
     Eigenvalues --  ******************************
           X            0.99999   0.00310  -0.00219
           Y           -0.00310   0.99999   0.00176
           Z            0.00220  -0.00175   1.00000
 This molecule is an asymmetric top.
 Rotational symmetry number  1.
 Warning -- assumption of classical behavior for rotation
           may cause significant error
 Rotational temperatures (Kelvin)      0.00821     0.00458     0.00305
 Rotational constants (GHZ):           0.17107     0.09540     0.06353
    1 imaginary frequencies ignored.
 Zero-point vibrational energy     939690.5 (Joules/Mol)
                                  224.59141 (Kcal/Mol)
 Warning -- explicit consideration of  32 degrees of freedom as
           vibrations may cause significant error
 Vibrational temperatures:     15.89    32.92    51.53    71.70    75.28
          (Kelvin)            113.33   121.25   164.49   184.08   199.26
                              238.62   259.64   294.25   328.75   385.25
                              423.63   461.41   479.23   482.93   552.07
                              572.45   587.84   606.36   610.38   622.47
                              651.77   693.65   706.37   728.32   770.75
                              776.18   878.48   897.06   925.10   928.10
                             1040.90  1047.77  1071.27  1083.37  1150.52
                             1209.58  1212.40  1225.56  1232.65  1244.43
                             1252.80  1274.85  1287.53  1322.69  1345.14
                             1397.69  1399.02  1421.33  1432.28  1446.33
                             1449.03  1462.00  1477.26  1479.49  1526.99
                             1542.08  1562.56  1589.94  1614.66  1615.47
                             1627.57  1630.09  1630.76  1650.13  1674.72
                             1695.70  1698.60  1774.36  1799.71  1808.88
                             1826.49  1828.97  1859.36  1870.47  1872.22
                             1882.52  1897.34  1942.24  1954.18  1972.46
                             1981.54  1991.26  1997.38  2001.39  2027.93
                             2035.01  2089.74  2095.20  2096.63  2096.99
                             2101.18  2122.35  2215.17  2215.73  2371.85
                             2372.47  2430.19  2433.00  2522.78  2529.15
                             4333.08  4359.53  4377.63  4381.43  4388.78
                             4396.26  4401.19  4446.83  4474.56  4481.61
                             4487.59  4495.13  4607.52  4608.14  4612.51
                             4612.89  4658.20  4660.44  4660.91  4661.26

 Zero-point correction=                           0.357909 (Hartree/Particle)
 Thermal correction to Energy=                    0.378658
 Thermal correction to Enthalpy=                  0.379602
 Thermal correction to Gibbs Free Energy=         0.304461
 Sum of electronic and zero-point Energies=          -1801.491897
 Sum of electronic and thermal Energies=             -1801.471149
 Sum of electronic and thermal Enthalpies=           -1801.470204
 Sum of electronic and thermal Free Energies=        -1801.545345

                     E (Thermal)             CV                S
                      KCal/Mol        Cal/Mol-Kelvin    Cal/Mol-Kelvin
 Total                  237.611             80.519            158.147
 Electronic               0.000              0.000              0.000
 Translational            0.889              2.981             43.520
 Rotational               0.889              2.981             36.981
 Vibrational            235.834             74.557             77.646
 Vibration     1          0.593              1.987              7.814
 Vibration     2          0.593              1.985              6.367
 Vibration     3          0.594              1.982              5.478
 Vibration     4          0.595              1.978              4.824
 Vibration     5          0.596              1.977              4.728
 Vibration     6          0.600              1.963              3.921
 Vibration     7          0.601              1.960              3.789
 Vibration     8          0.607              1.938              3.194
 Vibration     9          0.611              1.925              2.977
 Vibration    10          0.614              1.915              2.825
 Vibration    11          0.624              1.884              2.482
 Vibration    12          0.629              1.866              2.324
 Vibration    13          0.640              1.833              2.092
 Vibration    14          0.651              1.798              1.891
 Vibration    15          0.673              1.732              1.611
 Vibration    16          0.689              1.684              1.448
 Vibration    17          0.706              1.634              1.307
 Vibration    18          0.715              1.609              1.245
 Vibration    19          0.717              1.604              1.233
 Vibration    20          0.753              1.505              1.025
 Vibration    21          0.764              1.475              0.970
 Vibration    22          0.773              1.452              0.932
 Vibration    23          0.784              1.424              0.887
 Vibration    24          0.786              1.418              0.878
 Vibration    25          0.794              1.399              0.850
 Vibration    26          0.812              1.354              0.787
 Vibration    27          0.838              1.290              0.704
 Vibration    28          0.847              1.270              0.681
 Vibration    29          0.861              1.236              0.643
 Vibration    30          0.891              1.171              0.575
 Vibration    31          0.895              1.163              0.566
 Vibration    32          0.970              1.009              0.432

 Normal termination of Gaussian 16 at Thu Dec  8 09:35:29 2022.
