 Gaussian 16, Revision A.03,
 Gaussian 16:  ES64L-G16RevA.03 25-Dec-2016

 ----------------------------------------------------------------------
 #p pop=(regular,nbo,savenbos) freq=noraman def2svp empiricaldispersion
 =gd3bj output=wfx pbe1pbe
 ----------------------------------------------------------------------

 ------
 09_lig
 ------
 Symbolic Z-matrix:
 Charge =  0 Multiplicity = 1

                         Standard orientation:
 ---------------------------------------------------------------------
 Center     Atomic      Atomic             Coordinates (Angstroms)
 Number     Number       Type             X           Y           Z
 ---------------------------------------------------------------------
      1          6           0        0.660229    1.106407   -0.401932
      2          1           0        0.377003    0.988513   -1.465613
      3          6           0       -0.660102    1.106439    0.402196
      4          1           0       -0.376984    0.988704    1.465911
      5          6           0       -1.448445    2.400810    0.223016
      6          6           0       -0.606852    3.645369    0.456208
      7          6           0        0.606820    3.645307   -0.456379
      8          6           0        1.448502    2.400837   -0.222984
      9          7           0       -1.406792   -0.105120    0.071782
     10          6           0       -2.672575   -0.147064    0.105161
     11          6           0       -3.541907   -1.363181   -0.068760
     12          6           0       -2.787421   -2.604193   -0.523689
     13          6           0       -4.163561   -1.610480    1.317336
     14          6           0       -4.635300   -1.004446   -1.082599
     15          7           0        1.406887   -0.105143   -0.071580
     16          6           0        2.672674   -0.146939   -0.104631
     17          6           0        3.541905   -1.363192    0.068782
     18          6           0        2.787031   -2.604541    0.522132
     19          6           0        4.164185   -1.609303   -1.317271
     20          6           0        4.634831   -1.005478    1.083444
     21          1           0       -2.309600    2.408283    0.908189
     22          1           0       -1.858708    2.421567   -0.802820
     23          1           0       -0.275764    3.678167    1.509237
     24          1           0       -1.221513    4.544517    0.294308
     25          1           0        1.221423    4.544529   -0.294687
     26          1           0        0.275725    3.677860   -1.509414
     27          1           0        1.858811    2.421799    0.802837
     28          1           0        2.309625    2.408283   -0.908188
     29          1           0       -3.249522    0.764944    0.336968
     30          1           0       -2.069369   -2.931635    0.246228
     31          1           0       -2.248602   -2.440120   -1.467587
     32          1           0       -3.497293   -3.432652   -0.669879
     33          1           0       -3.375117   -1.841110    2.049789
     34          1           0       -4.855331   -2.465479    1.265504
     35          1           0       -4.733822   -0.737390    1.673432
     36          1           0       -4.207212   -0.830358   -2.081808
     37          1           0       -5.189698   -0.100739   -0.781475
     38          1           0       -5.359204   -1.829490   -1.162857
     39          1           0        3.249680    0.765193   -0.335800
     40          1           0        2.069145   -2.930948   -0.248376
     41          1           0        2.247942   -2.441393    1.466036
     42          1           0        3.496649   -3.433321    0.667674
     43          1           0        3.376051   -1.839123   -2.050307
     44          1           0        4.855780   -2.464474   -1.265935
     45          1           0        4.734751   -0.735963   -1.672277
     46          1           0        4.206311   -0.832285    2.082619
     47          1           0        5.189429   -0.101524    0.783416
     48          1           0        5.358666   -1.830633    1.163278
 ---------------------------------------------------------------------

 SCF Done:  E(RPBE1PBE) =  -735.885196257     A.U. after   13 cycles

 The electronic state is 1-A.
 Alpha  occ. eigenvalues --  -14.36573 -14.36571 -10.25785 -10.25784 -10.25428
 Alpha  occ. eigenvalues --  -10.25418 -10.24219 -10.24218 -10.22939 -10.22926
 Alpha  occ. eigenvalues --  -10.22755 -10.22753 -10.22459 -10.22459 -10.22364
 Alpha  occ. eigenvalues --  -10.22364 -10.21113 -10.21112  -0.93945  -0.91908
 Alpha  occ. eigenvalues --   -0.85028  -0.82959  -0.82420  -0.75379  -0.74949
 Alpha  occ. eigenvalues --   -0.69702  -0.69700  -0.69044  -0.69024  -0.65459
 Alpha  occ. eigenvalues --   -0.65196  -0.60211  -0.59635  -0.56920  -0.52404
 Alpha  occ. eigenvalues --   -0.51942  -0.51794  -0.49327  -0.47274  -0.46952
 Alpha  occ. eigenvalues --   -0.46590  -0.45970  -0.44788  -0.44675  -0.44060
 Alpha  occ. eigenvalues --   -0.43310  -0.42334  -0.40977  -0.40635  -0.40066
 Alpha  occ. eigenvalues --   -0.40021  -0.38218  -0.38216  -0.37770  -0.36898
 Alpha  occ. eigenvalues --   -0.36877  -0.36095  -0.35540  -0.34511  -0.34367
 Alpha  occ. eigenvalues --   -0.34361  -0.34049  -0.33873  -0.33456  -0.33171
 Alpha  occ. eigenvalues --   -0.31909  -0.29425  -0.28270  -0.24221  -0.22606
 Alpha virt. eigenvalues --    0.01412   0.01615   0.06150   0.06666   0.07187
 Alpha virt. eigenvalues --    0.07991   0.09846   0.10192   0.11598   0.11819
 Alpha virt. eigenvalues --    0.12242   0.12631   0.12840   0.12926   0.13506

 Mulliken charges:
               1
     1  C    0.023693
     2  H    0.034485
     3  C    0.023638
     4  H    0.034487
     5  C   -0.064850
     6  C   -0.012381
     7  C   -0.012373
     8  C   -0.064850
     9  N   -0.177908
    10  C    0.041151
    11  C   -0.375777
    12  C    0.052748
    13  C   -0.002539
    14  C   -0.001591
    15  N   -0.177890
    16  C    0.041126
    17  C   -0.375802
    18  C    0.052778
    19  C   -0.002574
    20  C   -0.001556
    21  H    0.052274
    22  H    0.030711
    23  H    0.026083
    24  H    0.031207
    25  H    0.031203
    26  H    0.026080
    27  H    0.030719
    28  H    0.052264
    29  H   -0.004065
    30  H    0.045413
    31  H    0.041714
    32  H    0.021557
    33  H    0.050355
    34  H    0.039395
    35  H    0.033165
    36  H    0.044532
    37  H    0.034110
    38  H    0.036552
    39  H   -0.004046
    40  H    0.045405
    41  H    0.041710
    42  H    0.021550
    43  H    0.050346
    44  H    0.039399
    45  H    0.033170
    46  H    0.044531
    47  H    0.034100
    48  H    0.036553
 Sum of Mulliken charges =  -0.00000

 Dipole moment (field-independent basis, Debye):
    X=             -0.0003    Y=              1.6123    Z=              0.0003  Tot=              1.6123
 Quadrupole moment (field-independent basis, Debye-Ang):
   XX=           -106.2260   YY=           -112.6389   ZZ=           -114.2521
   XY=              0.0013   XZ=             -1.0960   YZ=              0.0000

  Exact polarizability: 226.829   0.001 195.536  -0.213   0.000 152.834
 Approx polarizability: 286.951   0.003 243.378   1.527   0.002 226.760

 Summary of Natural Population Analysis:

                                       Natural Population
                Natural  -----------------------------------------------
    Atom  No    Charge         Core      Valence    Rydberg      Total
 -----------------------------------------------------------------------
      C    1   -0.05352      1.99896     4.03100    0.02356     6.05352
      H    2    0.24377      0.00000     0.75105    0.00518     0.75623
      C    3   -0.05351      1.99896     4.03099    0.02356     6.05351
      H    4    0.24376      0.00000     0.75106    0.00518     0.75624
      C    5   -0.47831      1.99911     4.46494    0.01427     6.47831
      C    6   -0.43956      1.99912     4.42639    0.01405     6.43956
      C    7   -0.43955      1.99912     4.42638    0.01405     6.43955
      C    8   -0.47833      1.99911     4.46496    0.01427     6.47833
      N    9   -0.48003      1.99920     5.46031    0.02052     7.48003
      C   10    0.13912      1.99903     3.82761    0.03423     5.86088
      C   11   -0.11461      1.99887     4.10120    0.01454     6.11461
      C   12   -0.64837      1.99920     4.63430    0.01487     6.64837
      C   13   -0.64194      1.99919     4.62999    0.01276     6.64194
      C   14   -0.64471      1.99919     4.63241    0.01311     6.64471
      N   15   -0.48003      1.99920     5.46030    0.02052     7.48003
      C   16    0.13911      1.99903     3.82763    0.03423     5.86089
      C   17   -0.11460      1.99887     4.10120    0.01454     6.11460
      C   18   -0.64837      1.99920     4.63430    0.01487     6.64837
      C   19   -0.64194      1.99919     4.63000    0.01276     6.64194
      C   20   -0.64471      1.99919     4.63241    0.01311     6.64471
      H   21    0.23532      0.00000     0.76119    0.00349     0.76468
      H   22    0.22754      0.00000     0.76812    0.00434     0.77246
      H   23    0.22002      0.00000     0.77604    0.00394     0.77998
      H   24    0.23302      0.00000     0.76360    0.00339     0.76698
      H   25    0.23302      0.00000     0.76360    0.00339     0.76698
      H   26    0.22002      0.00000     0.77604    0.00394     0.77998
      H   27    0.22754      0.00000     0.76813    0.00434     0.77246
      H   28    0.23533      0.00000     0.76119    0.00349     0.76467
      H   29    0.15543      0.00000     0.83800    0.00656     0.84457
      H   30    0.23662      0.00000     0.76053    0.00286     0.76338
      H   31    0.23432      0.00000     0.76283    0.00285     0.76568
      H   32    0.21800      0.00000     0.77948    0.00252     0.78200
      H   33    0.23149      0.00000     0.76583    0.00268     0.76851
      H   34    0.22663      0.00000     0.77083    0.00254     0.77337
      H   35    0.22307      0.00000     0.77437    0.00256     0.77693
      H   36    0.22861      0.00000     0.76881    0.00258     0.77139
      H   37    0.22208      0.00000     0.77531    0.00261     0.77792
      H   38    0.22601      0.00000     0.77150    0.00250     0.77399
      H   39    0.15545      0.00000     0.83799    0.00656     0.84455
      H   40    0.23662      0.00000     0.76052    0.00286     0.76338
      H   41    0.23432      0.00000     0.76282    0.00285     0.76568
      H   42    0.21800      0.00000     0.77949    0.00252     0.78200
      H   43    0.23149      0.00000     0.76583    0.00268     0.76851
      H   44    0.22663      0.00000     0.77083    0.00254     0.77337
      H   45    0.22306      0.00000     0.77437    0.00256     0.77694
      H   46    0.22861      0.00000     0.76881    0.00258     0.77139
      H   47    0.22208      0.00000     0.77531    0.00261     0.77792
      H   48    0.22601      0.00000     0.77150    0.00250     0.77399
 =======================================================================
   * Total *   -0.00000     35.98370   103.59131    0.42499   140.00000

 ******    2 imaginary frequencies (negative Signs) ******

                      1                      2                      3
                      A                      A                      A
 Frequencies --    -93.9436               -83.0606                29.0782
 Red. masses --      2.5885                 2.7149                 2.9918
 Frc consts  --      0.0135                 0.0110                 0.0015
 IR Inten    --      0.9058                 5.6592                 0.0496

                      4                      5                      6
                      A                      A                      A
 Frequencies --     31.3794                46.9483                64.1573
 Red. masses --      2.6740                 3.1231                 2.9850
 Frc consts  --      0.0016                 0.0041                 0.0072
 IR Inten    --      0.0756                 0.0331                 0.0103

                      7                      8                      9
                      A                      A                      A
 Frequencies --     79.7413               109.5952               150.3158
 Red. masses --      3.5547                 3.2273                 3.3225
 Frc consts  --      0.0133                 0.0228                 0.0442
 IR Inten    --      1.3035                 1.2970                 0.4092

                     10                     11                     12
                      A                      A                      A
 Frequencies --    187.6073               193.6394               207.1594
 Red. masses --      2.3780                 2.8092                 1.2189
 Frc consts  --      0.0493                 0.0621                 0.0308
 IR Inten    --      2.4093                 0.6460                 0.0933

                     13                     14                     15
                      A                      A                      A
 Frequencies --    208.7495               212.9055               234.2191
 Red. masses --      1.0743                 2.0346                 3.3182
 Frc consts  --      0.0276                 0.0543                 0.1072
 IR Inten    --      0.0687                 0.4407                 0.3060

                     16                     17                     18
                      A                      A                      A
 Frequencies --    263.1725               264.2125               281.2639
 Red. masses --      1.0547                 1.0566                 1.0569
 Frc consts  --      0.0430                 0.0435                 0.0493
 IR Inten    --      0.2088                 0.0055                 0.1783

                     19                     20                     21
                      A                      A                      A
 Frequencies --    281.6631               300.8963               330.8611
 Red. masses --      1.0797                 2.6413                 2.1089
 Frc consts  --      0.0505                 0.1409                 0.1360
 IR Inten    --      0.1580                 0.5785                 4.3490

                     22                     23                     24
                      A                      A                      A
 Frequencies --    331.1185               349.1248               358.4817
 Red. masses --      1.7913                 2.3249                 2.1159
 Frc consts  --      0.1157                 0.1670                 0.1602
 IR Inten    --      0.0571                 0.0176                 0.1613

                     25                     26                     27
                      A                      A                      A
 Frequencies --    381.6677               390.8982               415.6839
 Red. masses --      2.2809                 2.4135                 3.1073
 Frc consts  --      0.1958                 0.2173                 0.3163
 IR Inten    --      5.1077                 0.6039                 0.2852

                     28                     29                     30
                      A                      A                      A
 Frequencies --    434.8939               440.7884               462.5583
 Red. masses --      2.4659                 2.5175                 3.0962
 Frc consts  --      0.2748                 0.2882                 0.3903
 IR Inten    --      1.0151                 0.0001                 1.3420

                     31                     32                     33
                      A                      A                      A
 Frequencies --    490.8716               512.4606               517.2784
 Red. masses --      2.2318                 3.3727                 3.5248
 Frc consts  --      0.3168                 0.5219                 0.5557
 IR Inten    --      0.6684                 2.1449                14.0373

                     34                     35                     36
                      A                      A                      A
 Frequencies --    525.1792               646.9381               649.6143
 Red. masses --      2.3316                 2.9694                 3.6806
 Frc consts  --      0.3789                 0.7322                 0.9151
 IR Inten    --      1.4424                 1.7928                 3.1436

                     37                     38                     39
                      A                      A                      A
 Frequencies --    780.5695               806.7398               816.5541
 Red. masses --      2.1421                 2.9610                 2.5682
 Frc consts  --      0.7690                 1.1354                 1.0089
 IR Inten    --      0.2775                 2.0635                 0.7091

                     40                     41                     42
                      A                      A                      A
 Frequencies --    864.3883               872.5510               916.5840
 Red. masses --      1.6800                 1.7215                 1.8580
 Frc consts  --      0.7396                 0.7722                 0.9197
 IR Inten    --      2.8991                11.4388                 3.3871

                     43                     44                     45
                      A                      A                      A
 Frequencies --    920.5611               943.6672               945.4635
 Red. masses --      2.2667                 1.8565                 1.5559
 Frc consts  --      1.1318                 0.9740                 0.8195
 IR Inten    --      6.7006                12.7674                 4.7139

                     46                     47                     48
                      A                      A                      A
 Frequencies --    950.6757               953.3661               954.2785
 Red. masses --      1.6643                 1.6349                 1.4350
 Frc consts  --      0.8863                 0.8755                 0.7700
 IR Inten    --     17.8895                 8.5458                 5.6606

                     49                     50                     51
                      A                      A                      A
 Frequencies --    957.0319               958.0205               958.1677
 Red. masses --      1.4643                 1.2565                 1.3413
 Frc consts  --      0.7902                 0.6795                 0.7255
 IR Inten    --      8.8110                 0.6679                 5.9457

                     52                     53                     54
                      A                      A                      A
 Frequencies --    970.0514               975.2943               997.9849
 Red. masses --      1.6210                 1.5620                 1.8254
 Frc consts  --      0.8987                 0.8754                 1.0712
 IR Inten    --      8.3839                 2.7202                 4.8120

                     55                     56                     57
                      A                      A                      A
 Frequencies --   1034.7307              1040.0396              1040.3584
 Red. masses --      2.1940                 1.5083                 1.5001
 Frc consts  --      1.3840                 0.9613                 0.9566
 IR Inten    --      0.5681                 0.0644                 1.2537

                     58                     59                     60
                      A                      A                      A
 Frequencies --   1045.8730              1057.0730              1071.9064
 Red. masses --      1.5035                 2.0506                 1.2873
 Frc consts  --      0.9690                 1.3500                 0.8715
 IR Inten    --      1.1581                18.6152                 0.3082

                     61                     62                     63
                      A                      A                      A
 Frequencies --   1091.1848              1091.3856              1143.9245
 Red. masses --      3.0232                 1.3360                 2.4743
 Frc consts  --      2.1208                 0.9376                 1.9076
 IR Inten    --      1.4686                 0.7814                 1.5874

                     64                     65                     66
                      A                      A                      A
 Frequencies --   1146.3834              1165.2013              1233.2366
 Red. masses --      2.0637                 1.8064                 2.4727
 Frc consts  --      1.5979                 1.4450                 2.2157
 IR Inten    --      2.2932                 2.7611                 6.5671

                     67                     68                     69
                      A                      A                      A
 Frequencies --   1233.5556              1240.4523              1244.7046
 Red. masses --      2.4310                 1.3873                 2.2246
 Frc consts  --      2.1795                 1.2577                 2.0307
 IR Inten    --      0.0437                 0.0395                20.0288

                     70                     71                     72
                      A                      A                      A
 Frequencies --   1246.0595              1251.8058              1253.4859
 Red. masses --      2.5213                 1.4483                 1.4745
 Frc consts  --      2.3065                 1.3371                 1.3650
 IR Inten    --      2.8529                13.5405                 8.8623

                     73                     74                     75
                      A                      A                      A
 Frequencies --   1291.1114              1307.6723              1308.3883
 Red. masses --      1.3841                 1.2248                 1.2748
 Frc consts  --      1.3594                 1.2340                 1.2858
 IR Inten    --     10.4869                 9.4159                 3.4859

                     76                     77                     78
                      A                      A                      A
 Frequencies --   1322.8567              1325.2954              1354.9927
 Red. masses --      2.1701                 2.3433                 1.6372
 Frc consts  --      2.2375                 2.4250                 1.7710
 IR Inten    --      0.1060                 7.7968                 0.0513

                     79                     80                     81
                      A                      A                      A
 Frequencies --   1358.8853              1368.3350              1368.3687
 Red. masses --      1.4448                 1.2780                 1.2782
 Frc consts  --      1.5719                 1.4098                 1.4101
 IR Inten    --      0.8401                 0.3436                18.6074

                     82                     83                     84
                      A                      A                      A
 Frequencies --   1379.3035              1383.2919              1384.5719
 Red. masses --      1.5033                 1.4290                 1.4490
 Frc consts  --      1.6851                 1.6111                 1.6367
 IR Inten    --      3.8870                 4.2905                11.1127

                     85                     86                     87
                      A                      A                      A
 Frequencies --   1387.0513              1388.5857              1394.0399
 Red. masses --      1.7002                 1.5489                 1.3973
 Frc consts  --      1.9272                 1.7597                 1.5998
 IR Inten    --     30.5263                 3.1544                 1.5643

                     88                     89                     90
                      A                      A                      A
 Frequencies --   1397.4869              1414.5066              1416.2579
 Red. masses --      1.4373                 1.2839                 1.3195
 Frc consts  --      1.6538                 1.5136                 1.5593
 IR Inten    --      3.3277                 5.6957                 3.6157

                     91                     92                     93
                      A                      A                      A
 Frequencies --   1444.5691              1444.5832              1448.5438
 Red. masses --      1.0433                 1.0429                 1.0432
 Frc consts  --      1.2828                 1.2823                 1.2897
 IR Inten    --      0.0126                 0.2837                 0.7716

                     94                     95                     96
                      A                      A                      A
 Frequencies --   1449.9943              1451.6990              1452.6561
 Red. masses --      1.0440                 1.0898                 1.0435
 Frc consts  --      1.2932                 1.3532                 1.2974
 IR Inten    --      0.0318                 2.0407                 0.1447

                     97                     98                     99
                      A                      A                      A
 Frequencies --   1452.7656              1456.6745              1460.0811
 Red. masses --      1.0472                 1.1023                 1.0862
 Frc consts  --      1.3022                 1.3781                 1.3643
 IR Inten    --      0.0761                 3.7675                 8.8138

                    100                    101                    102
                      A                      A                      A
 Frequencies --   1470.3237              1470.3541              1475.2569
 Red. masses --      1.0588                 1.0586                 1.0958
 Frc consts  --      1.3486                 1.3484                 1.4052
 IR Inten    --      1.2182                12.3987                 0.1722

                    103                    104                    105
                      A                      A                      A
 Frequencies --   1475.8318              1476.7759              1490.1164
 Red. masses --      1.0841                 1.1083                 1.1183
 Frc consts  --      1.3913                 1.4241                 1.4630
 IR Inten    --     10.5141                 3.5779                 8.4078

                    106                    107                    108
                      A                      A                      A
 Frequencies --   1490.6686              1784.7164              1789.4269
 Red. masses --      1.1196                10.1198                 9.9664
 Frc consts  --      1.4657                18.9916                18.8025
 IR Inten    --     17.7721               203.9812                33.2058

                    109                    110                    111
                      A                      A                      A
 Frequencies --   3027.4444              3037.4921              3044.6432
 Red. masses --      1.0828                 1.0793                 1.0421
 Frc consts  --      5.8472                 5.8672                 5.6915
 IR Inten    --      0.3569                 1.3005                 6.5291

                    112                    113                    114
                      A                      A                      A
 Frequencies --   3044.7890              3045.3468              3047.0738
 Red. masses --      1.0356                 1.0579                 1.0445
 Frc consts  --      5.6569                 5.7806                 5.7140
 IR Inten    --     32.6362                 1.3045                47.2333

                    115                    116                    117
                      A                      A                      A
 Frequencies --   3047.4096              3048.0986              3050.6149
 Red. masses --      1.0396                 1.0652                 1.0676
 Frc consts  --      5.6884                 5.8310                 5.8539
 IR Inten    --      0.7277                 7.4802                35.6777

                    118                    119                    120
                      A                      A                      A
 Frequencies --   3053.0106              3054.6375              3054.7711
 Red. masses --      1.0613                 1.0415                 1.0436
 Frc consts  --      5.8285                 5.7254                 5.7376
 IR Inten    --     45.1345                43.5999                 5.7553

                    121                    122                    123
                      A                      A                      A
 Frequencies --   3061.7644              3062.5628              3112.3842
 Red. masses --      1.0752                 1.0762                 1.0987
 Frc consts  --      5.9383                 5.9470                 6.2709
 IR Inten    --     73.9475                19.8888                46.6243

                    124                    125                    126
                      A                      A                      A
 Frequencies --   3114.6811              3118.9275              3120.6274
 Red. masses --      1.1011                 1.1005                 1.1031
 Frc consts  --      6.2936                 6.3076                 6.3292
 IR Inten    --     40.0780                 0.0072                45.0884

                    127                    128                    129
                      A                      A                      A
 Frequencies --   3139.3250              3139.4854              3141.0252
 Red. masses --      1.1026                 1.1026                 1.1038
 Frc consts  --      6.4026                 6.4032                 6.4165
 IR Inten    --     24.6816                 2.3748                 1.1085

                    130                    131                    132
                      A                      A                      A
 Frequencies --   3141.0553              3143.4191              3143.5115
 Red. masses --      1.1038                 1.1030                 1.1029
 Frc consts  --      6.4166                 6.4213                 6.4215
 IR Inten    --      1.2353                14.2717                73.7351

                    133                    134                    135
                      A                      A                      A
 Frequencies --   3151.3497              3151.3710              3155.0193
 Red. masses --      1.1043                 1.1043                 1.1050
 Frc consts  --      6.4617                 6.4618                 6.4804
 IR Inten    --     20.9262                11.3888                40.7105

                    136                    137                    138
                      A                      A                      A
 Frequencies --   3155.0618              3168.9013              3168.9246
 Red. masses --      1.1049                 1.1046                 1.1045
 Frc consts  --      6.4804                 6.5352                 6.5352
 IR Inten    --      0.4699                21.7689                 8.0722

 - Thermochemistry -
 -------------------
 Temperature   298.150 Kelvin.  Pressure   1.00000 Atm.
 Atom     1 has atomic number  6 and mass  12.00000

 Molecular mass:   250.24090 amu.
 Principal axes and moments of inertia in atomic units:
                           1         2         3
     Eigenvalues --  3902.642697855.72096**********
           X            1.00000  -0.00000   0.00017
           Y            0.00000   1.00000   0.00000
           Z           -0.00017  -0.00000   1.00000
 This molecule is an asymmetric top.
 Rotational symmetry number  1.
 Warning -- assumption of classical behavior for rotation
           may cause significant error
 Rotational temperatures (Kelvin)      0.02219     0.01103     0.00802
 Rotational constants (GHZ):           0.46244     0.22974     0.16716
    2 imaginary frequencies ignored.
 Zero-point vibrational energy    1148649.5 (Joules/Mol)
                                  274.53382 (Kcal/Mol)
 Warning -- explicit consideration of  32 degrees of freedom as
           vibrations may cause significant error
 Vibrational temperatures:     41.84    45.15    67.55    92.31   114.73
          (Kelvin)            157.68   216.27   269.93   278.60   298.06
                              300.34   306.32   336.99   378.65   380.14
                              404.68   405.25   432.92   476.04   476.41
                              502.31   515.78   549.13   562.42   598.08
                              625.72   634.20   665.52   706.25   737.32
                              744.25   755.62   930.80   934.65  1123.07
                             1160.72  1174.84  1243.66  1255.41  1318.76
                             1324.48  1357.73  1360.31  1367.81  1371.68
                             1372.99  1376.96  1378.38  1378.59  1395.69
                             1403.23  1435.88  1488.75  1496.38  1496.84
                             1504.78  1520.89  1542.23  1569.97  1570.26
                             1645.85  1649.39  1676.46  1774.35  1774.81
                             1784.73  1790.85  1792.80  1801.07  1803.49
                             1857.62  1881.45  1882.48  1903.30  1906.80
                             1949.53  1955.13  1968.73  1968.78  1984.51
                             1990.25  1992.09  1995.66  1997.87  2005.71
                             2010.67  2035.16  2037.68  2078.41  2078.43
                             2084.13  2086.22  2088.67  2090.05  2090.21
                             2095.83  2100.73  2115.47  2115.51  2122.57
                             2123.39  2124.75  2143.95  2144.74  2567.81
                             2574.59  4355.82  4370.27  4380.56  4380.77
                             4381.57  4384.06  4384.54  4385.53  4389.15
                             4392.60  4394.94  4395.13  4405.20  4406.34
                             4478.03  4481.33  4487.44  4489.89  4516.79
                             4517.02  4519.23  4519.28  4522.68  4522.81
                             4534.09  4534.12  4539.37  4539.43  4559.34
                             4559.38

 Zero-point correction=                           0.437497 (Hartree/Particle)
 Thermal correction to Energy=                    0.457336
 Thermal correction to Enthalpy=                  0.458280
 Thermal correction to Gibbs Free Energy=         0.389406
 Sum of electronic and zero-point Energies=           -735.447699
 Sum of electronic and thermal Energies=              -735.427860
 Sum of electronic and thermal Enthalpies=            -735.426916
 Sum of electronic and thermal Free Energies=         -735.495790

                     E (Thermal)             CV                S
                      KCal/Mol        Cal/Mol-Kelvin    Cal/Mol-Kelvin
 Total                  286.983             77.624            144.958
 Electronic               0.000              0.000              0.000
 Translational            0.889              2.981             42.452
 Rotational               0.889              2.981             34.159
 Vibrational            285.205             71.662             68.348
 Vibration     1          0.593              1.984              5.891
 Vibration     2          0.594              1.983              5.740
 Vibration     3          0.595              1.979              4.942
 Vibration     4          0.597              1.971              4.325
 Vibration     5          0.600              1.963              3.897
 Vibration     6          0.606              1.942              3.276
 Vibration     7          0.618              1.902              2.668
 Vibration     8          0.632              1.857              2.251
 Vibration     9          0.635              1.849              2.193
 Vibration    10          0.641              1.830              2.069
 Vibration    11          0.642              1.827              2.055
 Vibration    12          0.644              1.821              2.019
 Vibration    13          0.654              1.789              1.846
 Vibration    14          0.670              1.740              1.641
 Vibration    15          0.671              1.739              1.634
 Vibration    16          0.681              1.708              1.526
 Vibration    17          0.681              1.708              1.524
 Vibration    18          0.693              1.672              1.412
 Vibration    19          0.713              1.614              1.256
 Vibration    20          0.713              1.613              1.255
 Vibration    21          0.726              1.577              1.170
 Vibration    22          0.733              1.558              1.129
 Vibration    23          0.751              1.509              1.033
 Vibration    24          0.759              1.490              0.997
 Vibration    25          0.779              1.436              0.907
 Vibration    26          0.795              1.394              0.843
 Vibration    27          0.801              1.381              0.824
 Vibration    28          0.820              1.333              0.759
 Vibration    29          0.847              1.270              0.681
 Vibration    30          0.868              1.222              0.628
 Vibration    31          0.872              1.212              0.616
 Vibration    32          0.880              1.194              0.598

 Normal termination of Gaussian 16 at Thu Dec  8 09:31:58 2022.
