 Gaussian 16, Revision A.03,
 Gaussian 16:  ES64L-G16RevA.03 25-Dec-2016

 ----------------------------------------------------------------------
 #p pop=(regular,nbo,savenbos) freq=noraman def2svp empiricaldispersion
 =gd3bj output=wfx pbe1pbe
 ----------------------------------------------------------------------

 ------
 12_lig
 ------
 Symbolic Z-matrix:
 Charge =  0 Multiplicity = 1

                         Standard orientation:
 ---------------------------------------------------------------------
 Center     Atomic      Atomic             Coordinates (Angstroms)
 Number     Number       Type             X           Y           Z
 ---------------------------------------------------------------------
      1          6           0       -0.730237   -1.716651    0.493126
      2          7           0       -1.059350   -0.612279   -0.048269
      3          6           0       -2.005376    0.079865    0.811304
      4          1           0       -1.502313    0.985058    1.190903
      5          6           0       -2.246537   -0.965687    1.932809
      6          8           0       -1.304044   -2.020330    1.652727
      7          6           0       -3.263609    0.499747    0.093851
      8          6           0       -3.617958   -0.052238   -1.139862
      9          6           0       -4.808003    0.331568   -1.757313
     10          6           0       -5.653695    1.256352   -1.148887
     11          6           0       -5.300584    1.810835    0.081283
     12          6           0       -4.108176    1.438121    0.695340
     13          7           0        1.670178   -0.971369   -1.133512
     14          6           0        1.544956   -2.028548   -0.433938
     15          6           0        0.249016   -2.685739   -0.082070
     16          8           0        2.656635   -2.597256    0.030844
     17          6           0        3.756535   -1.831405   -0.491054
     18          6           0        3.087586   -0.607423   -1.164072
     19          1           0        3.406633   -0.509368   -2.212222
     20          6           0        3.307957    0.709747   -0.461688
     21          6           0        3.827641    1.804087   -1.149966
     22          6           0        3.986338    3.030907   -0.508706
     23          6           0        3.622862    3.170414    0.827680
     24          6           0        3.103514    2.078484    1.523433
     25          6           0        2.946921    0.855812    0.881008
     26          1           0       -3.258857   -1.393174    1.892864
     27          1           0       -2.046330   -0.589261    2.944472
     28          1           0       -2.950326   -0.760431   -1.639883
     29          1           0       -5.067862   -0.094843   -2.729021
     30          1           0       -6.584207    1.554923   -1.637512
     31          1           0       -5.951114    2.547469    0.558754
     32          1           0       -3.823810    1.892608    1.649139
     33          1           0        0.417266   -3.520169    0.606536
     34          1           0       -0.189083   -3.046893   -1.032513
     35          1           0        4.304716   -2.465926   -1.202524
     36          1           0        4.416924   -1.561353    0.343419
     37          1           0        4.090590    1.701965   -2.206194
     38          1           0        4.382750    3.885632   -1.061310
     39          1           0        3.736173    4.134603    1.328538
     40          1           0        2.808935    2.186262    2.569930
     41          1           0        2.518488    0.009643    1.426854
 ---------------------------------------------------------------------

 SCF Done:  E(RPBE1PBE) =  -992.970282188     A.U. after   14 cycles

 The electronic state is 1-A.
 Alpha  occ. eigenvalues --  -19.25195 -19.25160 -14.35964 -14.35810 -10.32202
 Alpha  occ. eigenvalues --  -10.32155 -10.29310 -10.29308 -10.26984 -10.26868
 Alpha  occ. eigenvalues --  -10.26335 -10.24225 -10.24114 -10.23851 -10.23784
 Alpha  occ. eigenvalues --  -10.23734 -10.23719 -10.23705 -10.23646 -10.23594
 Alpha  occ. eigenvalues --  -10.23427 -10.23383 -10.23076  -1.12557  -1.12318
 Alpha  occ. eigenvalues --   -0.92654  -0.91850  -0.87669  -0.87231  -0.83673
 Alpha  occ. eigenvalues --   -0.80020  -0.77128  -0.76188  -0.75765  -0.74995
 Alpha  occ. eigenvalues --   -0.72275  -0.66630  -0.66131  -0.62139  -0.61920
 Alpha  occ. eigenvalues --   -0.60124  -0.59840  -0.59261  -0.56342  -0.54280
 Alpha  occ. eigenvalues --   -0.53583  -0.52775  -0.51997  -0.50585  -0.49505
 Alpha  occ. eigenvalues --   -0.48652  -0.47488  -0.46707  -0.46255  -0.45477
 Alpha  occ. eigenvalues --   -0.44852  -0.44615  -0.43341  -0.43001  -0.42280
 Alpha  occ. eigenvalues --   -0.41986  -0.41367  -0.40552  -0.39756  -0.38794
 Alpha  occ. eigenvalues --   -0.37874  -0.37118  -0.37038  -0.36687  -0.35816
 Alpha  occ. eigenvalues --   -0.35159  -0.35058  -0.34975  -0.28516  -0.26852
 Alpha  occ. eigenvalues --   -0.26719  -0.26334  -0.26238  -0.25779  -0.25456
 Alpha  occ. eigenvalues --   -0.24709
 Alpha virt. eigenvalues --   -0.00924  -0.00420  -0.00292   0.00031   0.01402
 Alpha virt. eigenvalues --    0.03912   0.06756   0.07657   0.08222   0.08254
 Alpha virt. eigenvalues --    0.09175   0.10198   0.11310   0.11513   0.12307

 Mulliken charges:
               1
     1  C    0.027165
     2  N   -0.220175
     3  C   -0.019003
     4  H    0.054334
     5  C    0.251125
     6  O   -0.334228
     7  C   -0.048036
     8  C   -0.010700
     9  C   -0.018001
    10  C   -0.014485
    11  C   -0.020628
    12  C   -0.018041
    13  N   -0.198464
    14  C    0.021981
    15  C    0.214536
    16  O   -0.337491
    17  C    0.238102
    18  C   -0.053287
    19  H    0.027958
    20  C    0.030718
    21  C   -0.024091
    22  C   -0.023142
    23  C   -0.012712
    24  C   -0.019838
    25  C   -0.027489
    26  H    0.049508
    27  H    0.050246
    28  H    0.025301
    29  H    0.019117
    30  H    0.019723
    31  H    0.018686
    32  H    0.004762
    33  H    0.055404
    34  H    0.094128
    35  H    0.051600
    36  H    0.054686
    37  H    0.009209
    38  H    0.020343
    39  H    0.021008
    40  H    0.017484
    41  H    0.022688
 Sum of Mulliken charges =  -0.00000

 Dipole moment (field-independent basis, Debye):
    X=              0.6263    Y=             -0.4505    Z=              1.1516  Tot=              1.3862
 Quadrupole moment (field-independent basis, Debye-Ang):
   XX=           -121.2081   YY=           -126.9240   ZZ=           -126.0258
   XY=             -1.1982   XZ=             -5.1713   YZ=              6.8248

  Exact polarizability: 213.243 -10.027 211.097  -1.336  12.499 190.202
 Approx polarizability: 269.713 -13.661 323.446  -3.484  13.911 319.141

 Summary of Natural Population Analysis:

                                       Natural Population
                Natural  -----------------------------------------------
    Atom  No    Charge         Core      Valence    Rydberg      Total
 -----------------------------------------------------------------------
      C    1    0.62278      1.99903     3.33431    0.04388     5.37722
      N    2   -0.55105      1.99926     5.53505    0.01674     7.55105
      C    3   -0.09350      1.99898     4.07018    0.02434     6.09350
      H    4    0.24668      0.00000     0.74911    0.00421     0.75332
      C    5   -0.07694      1.99906     4.05937    0.01851     6.07694
      O    6   -0.56233      1.99965     6.55201    0.01067     8.56233
      C    7   -0.05324      1.99884     4.03533    0.01906     6.05324
      C    8   -0.22004      1.99888     4.20547    0.01570     6.22004
      C    9   -0.21843      1.99895     4.20419    0.01530     6.21843
      C   10   -0.23496      1.99895     4.22094    0.01507     6.23496
      C   11   -0.22198      1.99895     4.20768    0.01535     6.22198
      C   12   -0.23040      1.99888     4.21625    0.01526     6.23040
      N   13   -0.53590      1.99927     5.51968    0.01695     7.53590
      C   14    0.61230      1.99905     3.34532    0.04334     5.38770
      C   15   -0.55517      1.99901     4.53925    0.01692     6.55517
      O   16   -0.56557      1.99965     6.55512    0.01080     8.56557
      C   17   -0.07984      1.99907     4.06173    0.01904     6.07984
      C   18   -0.09592      1.99895     4.07117    0.02580     6.09592
      H   19    0.24210      0.00000     0.75449    0.00341     0.75790
      C   20   -0.05008      1.99885     4.03117    0.02005     6.05008
      C   21   -0.21713      1.99887     4.20258    0.01567     6.21713
      C   22   -0.22024      1.99894     4.20603    0.01527     6.22024
      C   23   -0.23041      1.99895     4.21639    0.01507     6.23041
      C   24   -0.22072      1.99894     4.20636    0.01542     6.22072
      C   25   -0.21981      1.99889     4.20504    0.01588     6.21981
      H   26    0.21401      0.00000     0.78293    0.00306     0.78599
      H   27    0.21530      0.00000     0.78203    0.00266     0.78470
      H   28    0.24742      0.00000     0.74879    0.00379     0.75258
      H   29    0.22975      0.00000     0.76751    0.00275     0.77025
      H   30    0.22961      0.00000     0.76766    0.00273     0.77039
      H   31    0.22975      0.00000     0.76750    0.00275     0.77025
      H   32    0.22606      0.00000     0.77105    0.00289     0.77394
      H   33    0.26910      0.00000     0.72756    0.00333     0.73090
      H   34    0.28777      0.00000     0.70917    0.00306     0.71223
      H   35    0.21184      0.00000     0.78515    0.00301     0.78816
      H   36    0.21868      0.00000     0.77857    0.00275     0.78132
      H   37    0.22925      0.00000     0.76788    0.00287     0.77075
      H   38    0.23087      0.00000     0.76639    0.00274     0.76913
      H   39    0.23005      0.00000     0.76723    0.00272     0.76995
      H   40    0.22965      0.00000     0.76759    0.00276     0.77035
      H   41    0.23068      0.00000     0.76593    0.00339     0.76932
 =======================================================================
   * Total *   -0.00000     45.97788   115.52715    0.49497   162.00000

 ******    3 imaginary frequencies (negative Signs) ******

                      1                      2                      3
                      A                      A                      A
 Frequencies --    -99.2620               -61.1778               -16.8722
 Red. masses --      7.6904                 6.3773                 3.8018
 Frc consts  --      0.0446                 0.0141                 0.0006
 IR Inten    --      1.9822                 0.6797                 0.0435

                      4                      5                      6
                      A                      A                      A
 Frequencies --     16.6389                28.4033                36.2667
 Red. masses --      4.9926                 4.9877                 3.7704
 Frc consts  --      0.0008                 0.0024                 0.0029
 IR Inten    --      0.0394                 0.0892                 0.0781

                      7                      8                      9
                      A                      A                      A
 Frequencies --     70.7686                92.9045               108.0165
 Red. masses --      5.3734                 4.0027                 5.0354
 Frc consts  --      0.0159                 0.0204                 0.0346
 IR Inten    --      0.0844                 1.4108                 0.1113

                     10                     11                     12
                      A                      A                      A
 Frequencies --    156.7848               187.1816               216.2327
 Red. masses --      2.7974                 3.1427                 4.3073
 Frc consts  --      0.0405                 0.0649                 0.1187
 IR Inten    --      1.1333                 1.6796                 0.2840

                     13                     14                     15
                      A                      A                      A
 Frequencies --    246.0380               273.7663               297.2610
 Red. masses --      5.4064                 5.3140                 3.0148
 Frc consts  --      0.1928                 0.2347                 0.1570
 IR Inten    --      2.5593                 3.3652                 5.3398

                     16                     17                     18
                      A                      A                      A
 Frequencies --    319.8481               336.5325               356.9011
 Red. masses --      4.0816                 5.5588                 2.8602
 Frc consts  --      0.2460                 0.3709                 0.2147
 IR Inten    --      0.3916                 0.5244                 4.4175

                     19                     20                     21
                      A                      A                      A
 Frequencies --    404.5959               414.3538               417.2404
 Red. masses --      5.1694                 2.8488                 2.8944
 Frc consts  --      0.4986                 0.2882                 0.2969
 IR Inten    --      2.5846                 0.0798                 0.1591

                     22                     23                     24
                      A                      A                      A
 Frequencies --    535.6696               543.2044               563.9449
 Red. masses --      3.4555                 3.4032                 3.5218
 Frc consts  --      0.5842                 0.5916                 0.6599
 IR Inten    --      5.6419                 9.7800                 1.2428

                     25                     26                     27
                      A                      A                      A
 Frequencies --    583.2467               629.5829               630.0334
 Red. masses --      4.0363                 6.2337                 6.3106
 Frc consts  --      0.8090                 1.4558                 1.4759
 IR Inten    --      1.9128                 0.7115                 0.1240

                     28                     29                     30
                      A                      A                      A
 Frequencies --    640.2798               672.7494               719.9586
 Red. masses --      4.8516                 6.3136                 2.5322
 Frc consts  --      1.1719                 1.6836                 0.7733
 IR Inten    --     13.2451                 9.1671                22.4462

                     31                     32                     33
                      A                      A                      A
 Frequencies --    721.0110               726.1805               747.6807
 Red. masses --      1.7226                 1.7970                 3.7773
 Frc consts  --      0.5276                 0.5583                 1.2441
 IR Inten    --     43.4959                23.6659                 3.8642

                     34                     35                     36
                      A                      A                      A
 Frequencies --    780.4195               783.7104               793.8094
 Red. masses --      1.9710                 2.6162                 2.8096
 Frc consts  --      0.7073                 0.9468                 1.0431
 IR Inten    --     18.6467                15.1331                21.8476

                     37                     38                     39
                      A                      A                      A
 Frequencies --    806.7629               831.7529               848.3614
 Red. masses --      4.8025                 4.4223                 5.8198
 Frc consts  --      1.8417                 1.8025                 2.4678
 IR Inten    --     11.6071                 7.0940                 0.0838

                     40                     41                     42
                      A                      A                      A
 Frequencies --    862.7642               868.7911               928.6923
 Red. masses --      1.2522                 1.2503                 2.3547
 Frc consts  --      0.5492                 0.5560                 1.1966
 IR Inten    --      0.0798                 0.1101                14.8045

                     43                     44                     45
                      A                      A                      A
 Frequencies --    940.3050               941.7776               958.7646
 Red. masses --      1.4996                 1.4409                 3.0558
 Frc consts  --      0.7812                 0.7530                 1.6550
 IR Inten    --      2.1529                 0.1480                13.3228

                     46                     47                     48
                      A                      A                      A
 Frequencies --    972.8495              1000.2649              1004.7370
 Red. masses --      3.8014                 1.4104                 2.6513
 Frc consts  --      2.1197                 0.8314                 1.5769
 IR Inten    --     22.1303                 0.6357                16.3389

                     49                     50                     51
                      A                      A                      A
 Frequencies --   1005.1881              1010.9221              1019.1255
 Red. masses --      1.3724                 3.8386                 4.7507
 Frc consts  --      0.8170                 2.3113                 2.9071
 IR Inten    --      0.1491                11.8569                 2.8901

                     52                     53                     54
                      A                      A                      A
 Frequencies --   1020.0428              1024.1286              1026.0072
 Red. masses --      4.8861                 1.3489                 1.3665
 Frc consts  --      2.9954                 0.8336                 0.8476
 IR Inten    --      0.8179                 0.2944                 1.4058

                     55                     56                     57
                      A                      A                      A
 Frequencies --   1039.4674              1041.3097              1055.3101
 Red. masses --      4.8094                 3.6118                 2.3287
 Frc consts  --      3.0617                 2.3074                 1.5280
 IR Inten    --      2.6510                 2.3112                 6.9312

                     58                     59                     60
                      A                      A                      A
 Frequencies --   1059.7725              1063.3597              1069.8201
 Red. masses --      2.0969                 2.1029                 2.8538
 Frc consts  --      1.3876                 1.4009                 1.9244
 IR Inten    --     16.1158                 8.8728                 6.0371

                     61                     62                     63
                      A                      A                      A
 Frequencies --   1076.4362              1097.6812              1112.4878
 Red. masses --      3.8018                 2.1309                 1.4666
 Frc consts  --      2.5955                 1.5128                 1.0694
 IR Inten    --    111.6098                 9.7550                 7.4204

                     64                     65                     66
                      A                      A                      A
 Frequencies --   1118.9737              1169.4583              1170.5977
 Red. masses --      2.0279                 1.0723                 1.0707
 Frc consts  --      1.4960                 0.8641                 0.8644
 IR Inten    --      9.3603                 0.1307                 0.0739

                     67                     68                     69
                      A                      A                      A
 Frequencies --   1179.0459              1186.5780              1191.7616
 Red. masses --      1.4704                 1.1051                 1.0998
 Frc consts  --      1.2043                 0.9168                 0.9203
 IR Inten    --     31.2016                 1.6309                 0.4694

                     70                     71                     72
                      A                      A                      A
 Frequencies --   1215.9423              1217.3287              1233.8877
 Red. masses --      1.1561                 1.1464                 1.6067
 Frc consts  --      1.0071                 1.0009                 1.4412
 IR Inten    --      1.1000                 5.8369                 7.4348

                     73                     74                     75
                      A                      A                      A
 Frequencies --   1240.4600              1254.3179              1262.0512
 Red. masses --      1.5838                 1.3764                 1.4100
 Frc consts  --      1.4359                 1.2759                 1.3232
 IR Inten    --      3.1565                37.7791                26.1661

                     76                     77                     78
                      A                      A                      A
 Frequencies --   1271.4950              1303.4586              1319.3940
 Red. masses --      1.4064                 1.6114                 1.6787
 Frc consts  --      1.3397                 1.6131                 1.7218
 IR Inten    --     31.3631                10.5760                11.6125

                     79                     80                     81
                      A                      A                      A
 Frequencies --   1326.7565              1341.6944              1364.3764
 Red. masses --      1.5187                 1.4171                 1.8718
 Frc consts  --      1.5751                 1.5030                 2.0529
 IR Inten    --     13.1741                 4.8243                27.5986

                     82                     83                     84
                      A                      A                      A
 Frequencies --   1368.4461              1402.8390              1411.9735
 Red. masses --      1.7411                 6.7720                 1.3215
 Frc consts  --      1.9210                 7.8521                 1.5523
 IR Inten    --      4.0746                 5.8374                17.9706

                     85                     86                     87
                      A                      A                      A
 Frequencies --   1414.9424              1442.6155              1468.3587
 Red. masses --      5.5124                 1.9579                 1.5517
 Frc consts  --      6.5023                 2.4007                 1.9711
 IR Inten    --      3.0101                44.3391                68.2810

                     88                     89                     90
                      A                      A                      A
 Frequencies --   1491.1500              1492.1420              1498.7942
 Red. masses --      2.2668                 1.4322                 2.1805
 Frc consts  --      2.9697                 1.8788                 2.8860
 IR Inten    --     11.2444                18.5998                39.6682

                     91                     92                     93
                      A                      A                      A
 Frequencies --   1506.1917              1540.1917              1542.7147
 Red. masses --      1.9653                 2.6992                 2.6805
 Frc consts  --      2.6269                 3.7725                 3.7587
 IR Inten    --    133.9383                15.4667                 7.0488

                     94                     95                     96
                      A                      A                      A
 Frequencies --   1671.9519              1679.1942              1694.5645
 Red. masses --      6.5870                 6.4957                 6.5382
 Frc consts  --     10.8488                10.7913                11.0618
 IR Inten    --      3.4062                 0.0864                 6.1707

                     97                     98                     99
                      A                      A                      A
 Frequencies --   1699.3029              1746.4354              1773.7768
 Red. masses --      6.5666                10.2463                11.0177
 Frc consts  --     11.1721                18.4129                20.4239
 IR Inten    --      1.6879                63.4784               289.3938

                    100                    101                    102
                      A                      A                      A
 Frequencies --   3050.4038              3070.1375              3094.0296
 Red. masses --      1.0692                 1.0870                 1.0681
 Frc consts  --      5.8618                 6.0364                 6.0242
 IR Inten    --      0.6281                11.0826                20.1113

                    103                    104                    105
                      A                      A                      A
 Frequencies --   3097.7516              3104.4955              3170.4391
 Red. masses --      1.0605                 1.0811                 1.1119
 Frc consts  --      5.9959                 6.1392                 6.5852
 IR Inten    --     22.9612                29.8939                13.2245

                    106                    107                    108
                      A                      A                      A
 Frequencies --   3172.3542              3190.5083              3192.4203
 Red. masses --      1.1125                 1.0889                 1.0888
 Frc consts  --      6.5968                 6.5306                 6.5380
 IR Inten    --     13.3392                 5.6228                 3.9497

                    109                    110                    111
                      A                      A                      A
 Frequencies --   3197.7072              3200.4787              3200.9490
 Red. masses --      1.0980                 1.0885                 1.0880
 Frc consts  --      6.6148                 6.5693                 6.5683
 IR Inten    --      0.8409                 2.6681                 0.0787

                    112                    113                    114
                      A                      A                      A
 Frequencies --   3208.9334              3209.8703              3218.5220
 Red. masses --      1.0916                 1.0913                 1.0961
 Frc consts  --      6.6228                 6.6249                 6.6896
 IR Inten    --      2.3198                 2.7680                13.5574

                    115                    116                    117
                      A                      A                      A
 Frequencies --   3220.1127              3228.1958              3230.2267
 Red. masses --      1.0962                 1.1007                 1.1007
 Frc consts  --      6.6968                 6.7580                 6.7669
 IR Inten    --     16.2202                13.7743                10.0177

 - Thermochemistry -
 -------------------
 Temperature   298.150 Kelvin.  Pressure   1.00000 Atm.
 Atom     1 has atomic number  6 and mass  12.00000

 Molecular mass:   306.13683 amu.
 Principal axes and moments of inertia in atomic units:
                           1         2         3
     Eigenvalues --  4516.27149********************
           X            1.00000  -0.00008  -0.00096
           Y            0.00009   0.99991   0.01350
           Z            0.00096  -0.01351   0.99991
 This molecule is an asymmetric top.
 Rotational symmetry number  1.
 Warning -- assumption of classical behavior for rotation
           may cause significant error
 Rotational temperatures (Kelvin)      0.01918     0.00678     0.00581
 Rotational constants (GHZ):           0.39961     0.14120     0.12105
    3 imaginary frequencies ignored.
 Zero-point vibrational energy     885289.2 (Joules/Mol)
                                  211.58920 (Kcal/Mol)
 Warning -- explicit consideration of  22 degrees of freedom as
           vibrations may cause significant error
 Vibrational temperatures:     23.94    40.87    52.18   101.82   133.67
          (Kelvin)            155.41   225.58   269.31   311.11   353.99
                              393.89   427.69   460.19   484.20   513.50
                              582.12   596.16   600.32   770.71   781.55
                              811.39   839.16   905.83   906.48   921.22
                              967.94  1035.86  1037.37  1044.81  1075.75
                             1122.85  1127.58  1142.11  1160.75  1196.71
                             1220.60  1241.33  1250.00  1336.18  1352.89
                             1355.01  1379.45  1399.71  1439.16  1445.59
                             1446.24  1454.49  1466.29  1467.61  1473.49
                             1476.20  1495.56  1498.21  1518.36  1524.78
                             1529.94  1539.23  1548.75  1579.32  1600.62
                             1609.95  1682.59  1684.23  1696.38  1707.22
                             1714.68  1749.47  1751.46  1775.29  1784.75
                             1804.68  1815.81  1829.40  1875.39  1898.31
                             1908.91  1930.40  1963.03  1968.89  2018.37
                             2031.51  2035.79  2075.60  2112.64  2145.43
                             2146.86  2156.43  2167.07  2215.99  2219.62
                             2405.57  2415.99  2438.10  2444.92  2512.73
                             2552.07  4388.85  4417.24  4451.62  4456.97
                             4466.68  4561.55  4564.31  4590.43  4593.18
                             4600.79  4604.78  4605.45  4616.94  4618.29
                             4630.74  4633.02  4644.65  4647.58

 Zero-point correction=                           0.337189 (Hartree/Particle)
 Thermal correction to Energy=                    0.353460
 Thermal correction to Enthalpy=                  0.354404
 Thermal correction to Gibbs Free Energy=         0.290416
 Sum of electronic and zero-point Energies=           -992.633093
 Sum of electronic and thermal Energies=              -992.616823
 Sum of electronic and thermal Enthalpies=            -992.615878
 Sum of electronic and thermal Free Energies=         -992.679866

                     E (Thermal)             CV                S
                      KCal/Mol        Cal/Mol-Kelvin    Cal/Mol-Kelvin
 Total                  221.799             66.349            134.673
 Electronic               0.000              0.000              0.000
 Translational            0.889              2.981             43.053
 Rotational               0.889              2.981             35.108
 Vibrational            220.022             60.387             56.512
 Vibration     1          0.593              1.986              7.000
 Vibration     2          0.593              1.984              5.938
 Vibration     3          0.594              1.982              5.453
 Vibration     4          0.598              1.968              4.132
 Vibration     5          0.602              1.954              3.598
 Vibration     6          0.606              1.943              3.304
 Vibration     7          0.620              1.895              2.588
 Vibration     8          0.632              1.857              2.256
 Vibration     9          0.645              1.816              1.990
 Vibration    10          0.661              1.769              1.759
 Vibration    11          0.676              1.722              1.572
 Vibration    12          0.691              1.679              1.432
 Vibration    13          0.706              1.636              1.311
 Vibration    14          0.717              1.603              1.229
 Vibration    15          0.732              1.561              1.136
 Vibration    16          0.770              1.460              0.946
 Vibration    17          0.778              1.439              0.911
 Vibration    18          0.780              1.433              0.901
 Vibration    19          0.891              1.171              0.575
 Vibration    20          0.898              1.155              0.558
 Vibration    21          0.920              1.109              0.516
 Vibration    22          0.940              1.068              0.479

 Normal termination of Gaussian 16 at Thu Dec  8 09:29:02 2022.
