 Gaussian 16, Revision A.03,
 Gaussian 16:  ES64L-G16RevA.03 25-Dec-2016

 ----------------------------------------------------------------------
 #p pop=(regular,nbo,savenbos) freq=noraman def2svp empiricaldispersion
 =gd3bj output=wfx pbe1pbe
 ----------------------------------------------------------------------

 ------
 13_lig
 ------
 Symbolic Z-matrix:
 Charge =  0 Multiplicity = 1

                         Standard orientation:
 ---------------------------------------------------------------------
 Center     Atomic      Atomic             Coordinates (Angstroms)
 Number     Number       Type             X           Y           Z
 ---------------------------------------------------------------------
      1          6           0       -1.183039   -1.142715    0.449408
      2          7           0       -1.375540    0.114585    0.360239
      3          6           0       -2.748236    0.399158    0.792644
      4          1           0       -2.693240    1.214419    1.529932
      5          6           0       -3.160170   -0.936690    1.432511
      6          8           0       -2.162865   -1.871848    0.971794
      7          6           0       -3.634687    0.867370   -0.388878
      8          6           0       -3.732434   -0.214957   -1.465201
      9          6           0       -5.022692    1.184942    0.172502
     10          6           0       -3.046372    2.139134   -1.003982
     11          7           0        1.375975    0.113656   -0.362751
     12          6           0        1.183602   -1.143803   -0.449469
     13          6           0       -0.000368   -1.923446   -0.000795
     14          8           0        2.164387   -1.874187   -0.968327
     15          6           0        3.162622   -0.940143   -1.429270
     16          6           0        2.749409    0.397275   -0.793496
     17          1           0        2.695511    1.210594   -1.533020
     18          6           0        3.633887    0.868755    0.388196
     19          6           0        5.022774    1.184935   -0.171784
     20          6           0        3.044470    2.142117    0.998891
     21          6           0        3.729960   -0.210687    1.467566
     22          1           0       -4.142900   -1.308392    1.117846
     23          1           0       -3.115803   -0.918645    2.531676
     24          1           0       -4.365658    0.134432   -2.294732
     25          1           0       -4.174018   -1.152484   -1.090872
     26          1           0       -2.741105   -0.441494   -1.887954
     27          1           0       -5.682227    1.547656   -0.630274
     28          1           0       -4.965104    1.972253    0.940188
     29          1           0       -5.510007    0.304252    0.621068
     30          1           0       -3.740323    2.544873   -1.756434
     31          1           0       -2.088170    1.954471   -1.514406
     32          1           0       -2.859657    2.910088   -0.242461
     33          1           0        0.316289   -2.597072    0.812762
     34          1           0       -0.318233   -2.594523   -0.816047
     35          1           0        3.120543   -0.924768   -2.528564
     36          1           0        4.144689   -1.311088   -1.111656
     37          1           0        4.966372    1.970153   -0.941696
     38          1           0        5.510931    0.303088   -0.617150
     39          1           0        5.680959    1.549902    0.631090
     40          1           0        2.858574    2.910861    0.234929
     41          1           0        3.737341    2.550198    1.751069
     42          1           0        2.085656    1.958739    1.508608
     43          1           0        4.172253   -1.149157    1.096439
     44          1           0        2.737955   -0.436201    1.889254
     45          1           0        4.361784    0.140965    2.297201
 ---------------------------------------------------------------------

 SCF Done:  E(RPBE1PBE) =  -845.643993463     A.U. after   13 cycles

 The electronic state is 1-A.
 Alpha  occ. eigenvalues --  -19.24339 -19.24334 -14.35281 -14.35276 -10.31488
 Alpha  occ. eigenvalues --  -10.31486 -10.28614 -10.28613 -10.26025 -10.25767
 Alpha  occ. eigenvalues --  -10.25767 -10.24301 -10.24301 -10.22392 -10.22392
 Alpha  occ. eigenvalues --  -10.21900 -10.21899 -10.21168 -10.21168  -1.11895
 Alpha  occ. eigenvalues --   -1.11699  -0.91643  -0.90831  -0.84890  -0.83364
 Alpha  occ. eigenvalues --   -0.80837  -0.76698  -0.72289  -0.69727  -0.69640
 Alpha  occ. eigenvalues --   -0.69022  -0.68961  -0.65437  -0.64949  -0.59573
 Alpha  occ. eigenvalues --   -0.55846  -0.55257  -0.55024  -0.52020  -0.51497
 Alpha  occ. eigenvalues --   -0.51455  -0.50192  -0.47111  -0.47103  -0.46720
 Alpha  occ. eigenvalues --   -0.44995  -0.44958  -0.44304  -0.43949  -0.43325
 Alpha  occ. eigenvalues --   -0.42535  -0.41040  -0.40548  -0.39326  -0.39231
 Alpha  occ. eigenvalues --   -0.38365  -0.38259  -0.37333  -0.36827  -0.36688
 Alpha  occ. eigenvalues --   -0.36620  -0.36605  -0.35107  -0.34353  -0.34272
 Alpha  occ. eigenvalues --   -0.33516  -0.33495  -0.32922  -0.32911  -0.28054
 Alpha  occ. eigenvalues --   -0.25232  -0.24564  -0.24520
 Alpha virt. eigenvalues --    0.02942   0.03231   0.05947   0.06511   0.08087
 Alpha virt. eigenvalues --    0.09331   0.09533   0.09881   0.09988   0.11138
 Alpha virt. eigenvalues --    0.11146   0.12166   0.12179   0.13107   0.14100

 Mulliken charges:
               1
     1  C    0.049537
     2  N   -0.204774
     3  C   -0.018645
     4  H    0.032451
     5  C    0.239132
     6  O   -0.347268
     7  C   -0.380500
     8  C    0.005998
     9  C    0.022996
    10  C    0.035271
    11  N   -0.204737
    12  C    0.049599
    13  C    0.146957
    14  O   -0.347327
    15  C    0.239106
    16  C   -0.018622
    17  H    0.032453
    18  C   -0.380493
    19  C    0.022978
    20  C    0.035280
    21  C    0.006008
    22  H    0.044697
    23  H    0.046882
    24  H    0.034867
    25  H    0.029658
    26  H    0.050894
    27  H    0.037310
    28  H    0.034379
    29  H    0.025350
    30  H    0.026020
    31  H    0.056370
    32  H    0.029053
    33  H    0.076765
    34  H    0.076869
    35  H    0.046873
    36  H    0.044701
    37  H    0.034378
    38  H    0.025354
    39  H    0.037314
    40  H    0.029053
    41  H    0.026014
    42  H    0.056370
    43  H    0.029644
    44  H    0.050918
    45  H    0.034864
 Sum of Mulliken charges =  -0.00000

 Dipole moment (field-independent basis, Debye):
    X=              0.0002    Y=             -0.6251    Z=              0.0010  Tot=              0.6251
 Quadrupole moment (field-independent basis, Debye-Ang):
   XX=           -104.7126   YY=           -119.8253   ZZ=           -113.0055
   XY=             -0.0013   XZ=             -3.9450   YZ=              0.0165

  Exact polarizability: 198.595  -0.007 171.043  -5.155  -0.002 151.642
 Approx polarizability: 235.195  -0.009 264.510  -7.382  -0.040 215.379

 Summary of Natural Population Analysis:

                                       Natural Population
                Natural  -----------------------------------------------
    Atom  No    Charge         Core      Valence    Rydberg      Total
 -----------------------------------------------------------------------
      C    1    0.61550      1.99907     3.34242    0.04300     5.38450
      N    2   -0.54254      1.99929     5.52634    0.01691     7.54254
      C    3   -0.08841      1.99894     4.06199    0.02747     6.08841
      H    4    0.24389      0.00000     0.75275    0.00335     0.75611
      C    5   -0.08567      1.99903     4.06706    0.01957     6.08567
      O    6   -0.56967      1.99965     6.55923    0.01079     8.56967
      C    7   -0.08308      1.99886     4.06767    0.01656     6.08308
      C    8   -0.66063      1.99918     4.64759    0.01386     6.66063
      C    9   -0.65012      1.99918     4.63744    0.01350     6.65012
      C   10   -0.64894      1.99918     4.63521    0.01455     6.64894
      N   11   -0.54251      1.99929     5.52631    0.01691     7.54251
      C   12    0.61550      1.99907     3.34243    0.04300     5.38450
      C   13   -0.55350      1.99901     4.53852    0.01597     6.55350
      O   14   -0.56969      1.99965     6.55925    0.01079     8.56969
      C   15   -0.08566      1.99903     4.06705    0.01957     6.08566
      C   16   -0.08841      1.99894     4.06200    0.02747     6.08841
      H   17    0.24389      0.00000     0.75275    0.00336     0.75611
      C   18   -0.08308      1.99886     4.06767    0.01656     6.08308
      C   19   -0.65013      1.99918     4.63745    0.01350     6.65013
      C   20   -0.64894      1.99918     4.63521    0.01455     6.64894
      C   21   -0.66062      1.99918     4.64758    0.01386     6.66062
      H   22    0.21162      0.00000     0.78545    0.00293     0.78838
      H   23    0.21258      0.00000     0.78431    0.00310     0.78742
      H   24    0.22964      0.00000     0.76784    0.00252     0.77036
      H   25    0.22122      0.00000     0.77628    0.00250     0.77878
      H   26    0.23465      0.00000     0.76236    0.00299     0.76535
      H   27    0.23003      0.00000     0.76742    0.00255     0.76997
      H   28    0.22519      0.00000     0.77218    0.00262     0.77481
      H   29    0.21845      0.00000     0.77905    0.00249     0.78155
      H   30    0.21941      0.00000     0.77804    0.00255     0.78059
      H   31    0.24542      0.00000     0.75171    0.00287     0.75458
      H   32    0.22443      0.00000     0.77311    0.00247     0.77557
      H   33    0.27374      0.00000     0.72213    0.00413     0.72626
      H   34    0.27379      0.00000     0.72208    0.00413     0.72621
      H   35    0.21257      0.00000     0.78432    0.00310     0.78743
      H   36    0.21161      0.00000     0.78546    0.00293     0.78839
      H   37    0.22519      0.00000     0.77218    0.00262     0.77481
      H   38    0.21846      0.00000     0.77905    0.00249     0.78154
      H   39    0.23003      0.00000     0.76742    0.00255     0.76997
      H   40    0.22443      0.00000     0.77310    0.00247     0.77557
      H   41    0.21941      0.00000     0.77804    0.00255     0.78059
      H   42    0.24542      0.00000     0.75171    0.00287     0.75458
      H   43    0.22121      0.00000     0.77629    0.00250     0.77879
      H   44    0.23468      0.00000     0.76233    0.00299     0.76532
      H   45    0.22963      0.00000     0.76785    0.00252     0.77037
 =======================================================================
   * Total *   -0.00000     37.98380   107.57364    0.44256   146.00000

 ******    2 imaginary frequencies (negative Signs) ******

                      1                      2                      3
                      A                      A                      A
 Frequencies --    -75.1303               -56.8259                46.4692
 Red. masses --      5.6593                 4.5279                 3.5266
 Frc consts  --      0.0188                 0.0086                 0.0045
 IR Inten    --      0.2370                 0.2035                 0.1508

                      4                      5                      6
                      A                      A                      A
 Frequencies --     57.4093                70.7313                80.4333
 Red. masses --      3.3840                 2.8113                 3.5627
 Frc consts  --      0.0066                 0.0083                 0.0136
 IR Inten    --      0.1724                 0.0125                 0.1878

                      7                      8                      9
                      A                      A                      A
 Frequencies --     92.6886               148.8336               158.0950
 Red. masses --      2.9201                 3.1419                 3.1007
 Frc consts  --      0.0148                 0.0410                 0.0457
 IR Inten    --      0.1177                 1.6846                 0.3743

                     10                     11                     12
                      A                      A                      A
 Frequencies --    197.9219               201.7663               233.5025
 Red. masses --      1.0923                 1.1076                 1.8672
 Frc consts  --      0.0252                 0.0266                 0.0600
 IR Inten    --      1.3652                 0.3020                 7.6317

                     13                     14                     15
                      A                      A                      A
 Frequencies --    240.2519               250.0021               252.8867
 Red. masses --      2.0129                 1.4752                 1.2339
 Frc consts  --      0.0685                 0.0543                 0.0465
 IR Inten    --      0.0057                 3.7250                 0.0309

                     16                     17                     18
                      A                      A                      A
 Frequencies --    259.1636               267.3564               275.2107
 Red. masses --      1.4415                 1.1443                 1.6130
 Frc consts  --      0.0570                 0.0482                 0.0720
 IR Inten    --      2.2292                 0.0260                 0.0494

                     19                     20                     21
                      A                      A                      A
 Frequencies --    295.8161               296.3082               305.6522
 Red. masses --      1.9948                 2.0653                 4.2156
 Frc consts  --      0.1028                 0.1068                 0.2320
 IR Inten    --      0.7096                 0.8474                 1.9196

                     22                     23                     24
                      A                      A                      A
 Frequencies --    329.2532               356.3908               367.4447
 Red. masses --      2.5756                 2.5147                 2.4619
 Frc consts  --      0.1645                 0.1882                 0.1958
 IR Inten    --      0.1902                 0.3600                 2.6138

                     25                     26                     27
                      A                      A                      A
 Frequencies --    368.8862               393.9565               396.2458
 Red. masses --      3.3633                 2.2177                 2.3036
 Frc consts  --      0.2697                 0.2028                 0.2131
 IR Inten    --      0.5625                 0.3571                 0.0499

                     28                     29                     30
                      A                      A                      A
 Frequencies --    466.9923               471.7219               479.5578
 Red. masses --      2.7032                 2.8413                 2.2658
 Frc consts  --      0.3473                 0.3725                 0.3070
 IR Inten    --      0.3941                 0.1300                 0.4908

                     31                     32                     33
                      A                      A                      A
 Frequencies --    506.9906               592.6545               633.0865
 Red. masses --      2.8588                 3.5144                 4.6579
 Frc consts  --      0.4329                 0.7273                 1.0999
 IR Inten    --      0.1314                10.2700                 0.6214

                     34                     35                     36
                      A                      A                      A
 Frequencies --    744.4115               747.2302               755.5800
 Red. masses --      2.8467                 2.9058                 6.0515
 Frc consts  --      0.9294                 0.9559                 2.0355
 IR Inten    --      3.0451                 1.5354                21.9639

                     37                     38                     39
                      A                      A                      A
 Frequencies --    770.1284               811.1738               837.8521
 Red. masses --      3.6767                 5.6954                 4.9136
 Frc consts  --      1.2848                 2.2080                 2.0323
 IR Inten    --      7.7917                 0.1147                 0.1733

                     40                     41                     42
                      A                      A                      A
 Frequencies --    871.0190               872.7608               942.5416
 Red. masses --      2.0537                 2.1359                 1.3899
 Frc consts  --      0.9180                 0.9586                 0.7275
 IR Inten    --      3.7315                 1.0382                 3.5367

                     43                     44                     45
                      A                      A                      A
 Frequencies --    942.8264               947.2857               947.5367
 Red. masses --      1.3747                 1.3888                 1.4033
 Frc consts  --      0.7200                 0.7343                 0.7423
 IR Inten    --      1.0775                 3.5422                 0.0369

                     46                     47                     48
                      A                      A                      A
 Frequencies --    952.5948               952.7353               955.5521
 Red. masses --      1.4809                 1.4527                 2.4673
 Frc consts  --      0.7918                 0.7769                 1.3273
 IR Inten    --      0.3582                 1.7392                 3.8169

                     49                     50                     51
                      A                      A                      A
 Frequencies --    982.2303               982.8638               986.3562
 Red. masses --      2.5914                 2.0790                 2.4233
 Frc consts  --      1.4730                 1.1833                 1.3891
 IR Inten    --     33.5765                 0.1162                30.2636

                     52                     53                     54
                      A                      A                      A
 Frequencies --   1000.0405              1016.0022              1017.5507
 Red. masses --      2.8796                 1.9099                 1.9561
 Frc consts  --      1.6967                 1.1616                 1.1933
 IR Inten    --     11.9264                11.0902                 5.0128

                     55                     56                     57
                      A                      A                      A
 Frequencies --   1034.3341              1046.7229              1055.2260
 Red. masses --      3.9667                 2.3165                 1.8461
 Frc consts  --      2.5003                 1.4953                 1.2111
 IR Inten    --      0.0214                 5.7273                 7.7345

                     58                     59                     60
                      A                      A                      A
 Frequencies --   1056.2971              1069.4229              1072.3635
 Red. masses --      1.8012                 1.8626                 1.8598
 Frc consts  --      1.1841                 1.2551                 1.2601
 IR Inten    --      0.0891                 7.6663                 5.8682

                     61                     62                     63
                      A                      A                      A
 Frequencies --   1095.7172              1107.1270              1198.1042
 Red. masses --      3.3350                 3.9972                 1.1591
 Frc consts  --      2.3591                 2.8867                 0.9803
 IR Inten    --     83.0825                 0.0247                 0.3041

                     64                     65                     66
                      A                      A                      A
 Frequencies --   1209.6286              1212.8834              1213.4476
 Red. masses --      1.8714                 1.4801                 1.3582
 Frc consts  --      1.6134                 1.2828                 1.1783
 IR Inten    --    142.5150                28.0037                 4.3463

                     67                     68                     69
                      A                      A                      A
 Frequencies --   1231.0532              1231.9779              1248.5694
 Red. masses --      1.5389                 1.5601                 1.9432
 Frc consts  --      1.3741                 1.3951                 1.7848
 IR Inten    --     34.7435                12.1415                 0.1018

                     70                     71                     72
                      A                      A                      A
 Frequencies --   1248.6642              1271.3926              1278.1924
 Red. masses --      2.0074                 1.9051                 2.0075
 Frc consts  --      1.8440                 1.8143                 1.9324
 IR Inten    --      0.0613                32.7267                 0.0009

                     73                     74                     75
                      A                      A                      A
 Frequencies --   1283.3032              1287.6390              1314.5462
 Red. masses --      2.4613                 2.0670                 1.5715
 Frc consts  --      2.3882                 2.0192                 1.6000
 IR Inten    --      9.5086                 4.8822                11.4403

                     76                     77                     78
                      A                      A                      A
 Frequencies --   1337.9631              1352.7095              1364.0699
 Red. masses --      1.4415                 1.6551                 1.6158
 Frc consts  --      1.5204                 1.7843                 1.7714
 IR Inten    --      3.4009                 9.1876                 6.8404

                     79                     80                     81
                      A                      A                      A
 Frequencies --   1379.2376              1380.1134              1385.6527
 Red. masses --      1.3381                 1.3380                 1.4455
 Frc consts  --      1.4997                 1.5015                 1.6352
 IR Inten    --      0.5175                18.6508                14.4848

                     82                     83                     84
                      A                      A                      A
 Frequencies --   1385.6857              1406.0468              1406.2285
 Red. masses --      1.4477                 1.2814                 1.2556
 Frc consts  --      1.6378                 1.4926                 1.4629
 IR Inten    --      6.6295                 0.4997                22.8349

                     85                     86                     87
                      A                      A                      A
 Frequencies --   1408.6757              1438.2967              1442.7578
 Red. masses --      1.2075                 1.6988                 1.0455
 Frc consts  --      1.4118                 2.0706                 1.2822
 IR Inten    --     31.0200                 1.6694                 0.8438

                     88                     89                     90
                      A                      A                      A
 Frequencies --   1443.7733              1453.7731              1454.3017
 Red. masses --      1.1132                 1.0472                 1.0506
 Frc consts  --      1.3672                 1.3040                 1.3092
 IR Inten    --      0.4521                 2.9018                 0.0929

                     91                     92                     93
                      A                      A                      A
 Frequencies --   1458.2827              1459.1598              1467.6360
 Red. masses --      1.0448                 1.0472                 1.1251
 Frc consts  --      1.3091                 1.3136                 1.4279
 IR Inten    --      0.1280                 0.2774                14.7080

                     94                     95                     96
                      A                      A                      A
 Frequencies --   1473.3332              1475.4076              1478.2314
 Red. masses --      1.1102                 1.0928                 1.1191
 Frc consts  --      1.4198                 1.4016                 1.4408
 IR Inten    --      1.5846                 1.0216                 2.7936

                     97                     98                     99
                      A                      A                      A
 Frequencies --   1485.2365              1489.9973              1492.9570
 Red. masses --      1.1115                 1.1285                 1.1011
 Frc consts  --      1.4445                 1.4762                 1.4460
 IR Inten    --      2.8330                 3.4170                32.1807

                    100                    101                    102
                      A                      A                      A
 Frequencies --   1497.1022              1526.6609              1747.4487
 Red. masses --      1.1470                 3.1836                10.9269
 Frc consts  --      1.5147                 4.3717                19.6588
 IR Inten    --     13.6527               170.3903                71.0226

                    103                    104                    105
                      A                      A                      A
 Frequencies --   1773.9111              3047.7309              3047.7393
 Red. masses --     10.6674                 1.0367                 1.0367
 Frc consts  --     19.7775                 5.6733                 5.6733
 IR Inten    --    230.3349                40.6773                 4.1727

                    106                    107                    108
                      A                      A                      A
 Frequencies --   3051.2402              3051.3060              3057.4967
 Red. masses --      1.0372                 1.0372                 1.0382
 Frc consts  --      5.6893                 5.6895                 5.7184
 IR Inten    --     13.9413                26.9557                15.6133

                    109                    110                    111
                      A                      A                      A
 Frequencies --   3057.5801              3076.3852              3089.7080
 Red. masses --      1.0382                 1.0639                 1.0742
 Frc consts  --      5.7188                 5.9326                 6.0417
 IR Inten    --     18.0924                 2.6119                12.7961

                    112                    113                    114
                      A                      A                      A
 Frequencies --   3089.7806              3101.2920              3101.6147
 Red. masses --      1.0741                 1.0774                 1.0775
 Frc consts  --      6.0417                 6.1054                 6.1071
 IR Inten    --     21.8200                67.7579                 7.2160

                    115                    116                    117
                      A                      A                      A
 Frequencies --   3120.1559              3139.5265              3139.5425
 Red. masses --      1.0999                 1.1031                 1.1031
 Frc consts  --      6.3091                 6.4064                 6.4064
 IR Inten    --      0.6290                 0.4654                20.3426

                    118                    119                    120
                      A                      A                      A
 Frequencies --   3142.2677              3142.3259              3145.8504
 Red. masses --      1.1027                 1.1027                 1.1032
 Frc consts  --      6.4152                 6.4153                 6.4324
 IR Inten    --     19.8776                37.8373                 4.2015

                    121                    122                    123
                      A                      A                      A
 Frequencies --   3145.9237              3148.5230              3148.5391
 Red. masses --      1.1032                 1.1039                 1.1039
 Frc consts  --      6.4327                 6.4475                 6.4475
 IR Inten    --      4.4646                 2.1961                16.4568

                    124                    125                    126
                      A                      A                      A
 Frequencies --   3149.8017              3149.9152              3158.6615
 Red. masses --      1.1024                 1.1023                 1.1037
 Frc consts  --      6.4438                 6.4441                 6.4879
 IR Inten    --     64.9115                 5.1093                32.6793

                    127                    128                    129
                      A                      A                      A
 Frequencies --   3158.7031              3172.4840              3172.5072
 Red. masses --      1.1037                 1.1076                 1.1076
 Frc consts  --      6.4881                 6.5680                 6.5683
 IR Inten    --     10.2792                 9.2169                29.4329

 - Thermochemistry -
 -------------------
 Temperature   298.150 Kelvin.  Pressure   1.00000 Atm.
 Atom     1 has atomic number  6 and mass  12.00000

 Molecular mass:   266.19943 amu.
 Principal axes and moments of inertia in atomic units:
                           1         2         3
     Eigenvalues --  2463.319959865.59696**********
           X            0.99997   0.00001   0.00804
           Y           -0.00001   1.00000   0.00005
           Z           -0.00804  -0.00005   0.99997
 This molecule is an asymmetric top.
 Rotational symmetry number  1.
 Warning -- assumption of classical behavior for rotation
           may cause significant error
 Rotational temperatures (Kelvin)      0.03516     0.00878     0.00815
 Rotational constants (GHZ):           0.73265     0.18293     0.16987
    2 imaginary frequencies ignored.
 Zero-point vibrational energy    1045343.7 (Joules/Mol)
                                  249.84314 (Kcal/Mol)
 Warning -- explicit consideration of  30 degrees of freedom as
           vibrations may cause significant error
 Vibrational temperatures:     66.86    82.60   101.77   115.73   133.36
          (Kelvin)            214.14   227.46   284.77   290.30   335.96
                              345.67   359.70   363.85   372.88   384.67
                              395.97   425.61   426.32   439.77   473.72
                              512.77   528.67   530.74   566.82   570.11
                              671.90   678.70   689.98   729.45   852.70
                              910.87  1071.04  1075.10  1087.11  1108.04
                             1167.10  1205.48  1253.20  1255.71  1356.11
                             1356.52  1362.93  1363.29  1370.57  1370.77
                             1374.83  1413.21  1414.12  1419.15  1438.84
                             1461.80  1464.03  1488.18  1506.00  1518.23
                             1519.78  1538.66  1542.89  1576.49  1592.91
                             1723.80  1740.39  1745.07  1745.88  1771.21
                             1772.54  1796.41  1796.55  1829.25  1839.03
                             1846.39  1852.63  1891.34  1925.03  1946.25
                             1962.59  1984.42  1985.68  1993.65  1993.69
                             2022.99  2023.25  2026.77  2069.39  2075.81
                             2077.27  2091.66  2092.42  2098.14  2099.41
                             2111.60  2119.80  2122.78  2126.85  2136.92
                             2143.77  2148.03  2154.00  2196.52  2514.19
                             2552.26  4385.00  4385.02  4390.05  4390.15
                             4399.06  4399.18  4426.23  4445.40  4445.51
                             4462.07  4462.53  4489.21  4517.08  4517.10
                             4521.02  4521.11  4526.18  4526.28  4530.02
                             4530.05  4531.86  4532.03  4544.61  4544.67
                             4564.50  4564.53

 Zero-point correction=                           0.398150 (Hartree/Particle)
 Thermal correction to Energy=                    0.417052
 Thermal correction to Enthalpy=                  0.417996
 Thermal correction to Gibbs Free Energy=         0.352372
 Sum of electronic and zero-point Energies=           -845.245843
 Sum of electronic and thermal Energies=              -845.226942
 Sum of electronic and thermal Enthalpies=            -845.225998
 Sum of electronic and thermal Free Energies=         -845.291621

                     E (Thermal)             CV                S
                      KCal/Mol        Cal/Mol-Kelvin    Cal/Mol-Kelvin
 Total                  261.704             74.836            138.117
 Electronic               0.000              0.000              0.000
 Translational            0.889              2.981             42.636
 Rotational               0.889              2.981             33.912
 Vibrational            259.926             68.875             61.569
 Vibration     1          0.595              1.979              4.962
 Vibration     2          0.596              1.975              4.544
 Vibration     3          0.598              1.968              4.133
 Vibration     4          0.600              1.962              3.880
 Vibration     5          0.602              1.954              3.603
 Vibration     6          0.618              1.904              2.687
 Vibration     7          0.621              1.894              2.572
 Vibration     8          0.637              1.843              2.152
 Vibration     9          0.639              1.837              2.117
 Vibration    10          0.654              1.790              1.852
 Vibration    11          0.657              1.779              1.801
 Vibration    12          0.663              1.763              1.731
 Vibration    13          0.664              1.758              1.710
 Vibration    14          0.668              1.747              1.667
 Vibration    15          0.672              1.733              1.613
 Vibration    16          0.677              1.719              1.563
 Vibration    17          0.690              1.682              1.440
 Vibration    18          0.690              1.681              1.438
 Vibration    19          0.696              1.663              1.386
 Vibration    20          0.712              1.617              1.264
 Vibration    21          0.732              1.562              1.138
 Vibration    22          0.740              1.539              1.090
 Vibration    23          0.741              1.536              1.084
 Vibration    24          0.761              1.483              0.985
 Vibration    25          0.763              1.478              0.977
 Vibration    26          0.824              1.323              0.746
 Vibration    27          0.829              1.313              0.733
 Vibration    28          0.836              1.295              0.711
 Vibration    29          0.862              1.235              0.641
 Vibration    30          0.950              1.047              0.462

 Normal termination of Gaussian 16 at Thu Dec  8 09:30:33 2022.
