 Gaussian 16, Revision A.03,
 Gaussian 16:  ES64L-G16RevA.03 25-Dec-2016

 ----------------------------------------------------------------------
 #p pop=(regular,nbo,savenbos) freq=noraman def2svp empiricaldispersion
 =gd3bj output=wfx pbe1pbe
 ----------------------------------------------------------------------

 ------
 01_sub
 ------
 Symbolic Z-matrix:
 Charge =  0 Multiplicity = 1

                         Standard orientation:
 ---------------------------------------------------------------------
 Center     Atomic      Atomic             Coordinates (Angstroms)
 Number     Number       Type             X           Y           Z
 ---------------------------------------------------------------------
      1          6           0        2.820913    0.953207    0.434230
      2          6           0        2.718599   -0.592534    0.361316
      3          1           0        2.918903   -1.070824    1.334349
      4          7           0        1.300311   -0.790804    0.085770
      5          6           0        0.729990    0.349063    0.096211
      6          8           0        1.453745    1.428399    0.308196
      7          6           0       -0.729996    0.349064   -0.096225
      8          7           0       -1.300312   -0.790809   -0.085794
      9          6           0       -2.718604   -0.592539   -0.361323
     10          1           0       -2.918923   -1.070829   -1.334349
     11          6           0       -2.820917    0.953199   -0.434234
     12          8           0       -1.453756    1.428398   -0.308179
     13          6           0       -3.587630   -1.253274    0.689841
     14          6           0        3.587650   -1.253269   -0.689815
     15          1           0        3.396066    1.381282   -0.400443
     16          1           0        3.218645    1.334658    1.383563
     17          1           0       -3.396094    1.381284    0.400429
     18          1           0       -3.218633    1.334659   -1.383573
     19          1           0       -3.386460   -0.834014    1.687764
     20          1           0       -3.364535   -2.329893    0.694932
     21          1           0       -4.652942   -1.111502    0.454587
     22          1           0        3.386507   -0.834020   -1.687754
     23          1           0        3.364569   -2.329890   -0.694916
     24          1           0        4.652960   -1.111491   -0.454554
 ---------------------------------------------------------------------

 SCF Done:  E(RPBE1PBE) =  -570.940991761     A.U. after   14 cycles

 The electronic state is 1-A.
 Alpha  occ. eigenvalues --  -19.25464 -19.25455 -14.36190 -14.36183 -10.32175
 Alpha  occ. eigenvalues --  -10.32159 -10.29465 -10.29464 -10.26741 -10.26739
 Alpha  occ. eigenvalues --  -10.22933 -10.22933  -1.13426  -1.12072  -0.93670
 Alpha  occ. eigenvalues --   -0.91154  -0.82649  -0.78583  -0.73030  -0.71357
 Alpha  occ. eigenvalues --   -0.65855  -0.61925  -0.60818  -0.56521  -0.54302
 Alpha  occ. eigenvalues --   -0.52492  -0.51154  -0.48419  -0.47351  -0.46198
 Alpha  occ. eigenvalues --   -0.43836  -0.43052  -0.42547  -0.41501  -0.39967
 Alpha  occ. eigenvalues --   -0.39673  -0.37715  -0.37536  -0.37001  -0.35865
 Alpha  occ. eigenvalues --   -0.35628  -0.29125  -0.27490  -0.25732  -0.24234
 Alpha virt. eigenvalues --   -0.02611   0.06977   0.07297   0.09562   0.09818
 Alpha virt. eigenvalues --    0.09988   0.10565   0.12246   0.12747   0.13033
 Alpha virt. eigenvalues --    0.14381   0.14585   0.15149   0.15189   0.16585

 Mulliken charges:
               1
     1  C    0.228708
     2  C   -0.118251
     3  H    0.052400
     4  N   -0.209360
     5  C    0.134627
     6  O   -0.323452
     7  C    0.134627
     8  N   -0.209365
     9  C   -0.118252
    10  H    0.052400
    11  C    0.228700
    12  O   -0.323446
    13  C   -0.007006
    14  C   -0.007010
    15  H    0.044020
    16  H    0.055062
    17  H    0.044023
    18  H    0.055062
    19  H    0.038879
    20  H    0.062745
    21  H    0.041633
    22  H    0.038879
    23  H    0.062744
    24  H    0.041633
 Sum of Mulliken charges =  -0.00000

 Dipole moment (field-independent basis, Debye):
    X=              0.0000    Y=              1.0396    Z=             -0.0000  Tot=              1.0396
 Quadrupole moment (field-independent basis, Debye-Ang):
   XX=            -51.2324   YY=            -77.1128   ZZ=            -68.5319
   XY=             -0.0000   XZ=              2.8263   YZ=             -0.0001

  Exact polarizability: 135.446  -0.000  94.274   2.095  -0.000  75.972
 Approx polarizability: 152.097  -0.000 151.595   4.656   0.000 107.738

 Summary of Natural Population Analysis:

                                       Natural Population
                Natural  -----------------------------------------------
    Atom  No    Charge         Core      Valence    Rydberg      Total
 -----------------------------------------------------------------------
      C    1   -0.08590      1.99905     4.06845    0.01840     6.08590
      C    2   -0.09095      1.99906     4.07304    0.01885     6.09095
      H    3    0.23384      0.00000     0.76161    0.00455     0.76616
      N    4   -0.50482      1.99932     5.48861    0.01689     7.50482
      C    5    0.53741      1.99898     3.42167    0.04193     5.46259
      O    6   -0.54369      1.99966     6.53301    0.01103     8.54369
      C    7    0.53741      1.99898     3.42167    0.04194     5.46259
      N    8   -0.50482      1.99932     5.48862    0.01689     7.50482
      C    9   -0.09095      1.99906     4.07304    0.01885     6.09095
      H   10    0.23384      0.00000     0.76161    0.00455     0.76616
      C   11   -0.08590      1.99905     4.06845    0.01840     6.08590
      O   12   -0.54369      1.99966     6.53300    0.01103     8.54369
      C   13   -0.65338      1.99920     4.64394    0.01025     6.65338
      C   14   -0.65339      1.99920     4.64394    0.01025     6.65339
      H   15    0.20701      0.00000     0.78968    0.00331     0.79299
      H   16    0.21625      0.00000     0.78109    0.00266     0.78375
      H   17    0.20701      0.00000     0.78968    0.00331     0.79299
      H   18    0.21625      0.00000     0.78109    0.00266     0.78375
      H   19    0.22277      0.00000     0.77401    0.00322     0.77723
      H   20    0.24046      0.00000     0.75646    0.00308     0.75954
      H   21    0.22100      0.00000     0.77641    0.00258     0.77900
      H   22    0.22277      0.00000     0.77401    0.00322     0.77723
      H   23    0.24046      0.00000     0.75646    0.00308     0.75954
      H   24    0.22100      0.00000     0.77641    0.00258     0.77900
 =======================================================================
   * Total *    0.00000     23.99056    65.73595    0.27348    90.00000

 ******    2 imaginary frequencies (negative Signs) ******

                      1                      2                      3
                      A                      A                      A
 Frequencies --   -103.7586               -61.7898                43.6172
 Red. masses --      7.2258                 4.0850                 2.4613
 Frc consts  --      0.0458                 0.0092                 0.0028
 IR Inten    --      0.1774                 1.6632                 0.0256

                      4                      5                      6
                      A                      A                      A
 Frequencies --    114.1334               124.8526               202.2551
 Red. masses --      2.7416                 3.9233                 3.1214
 Frc consts  --      0.0210                 0.0360                 0.0752
 IR Inten    --      4.7218                 3.0133                 0.5508

                      7                      8                      9
                      A                      A                      A
 Frequencies --    247.8953               260.5414               302.4255
 Red. masses --      1.1333                 1.1132                 2.3577
 Frc consts  --      0.0410                 0.0445                 0.1271
 IR Inten    --      0.2097                 0.3201                 1.0483

                     10                     11                     12
                      A                      A                      A
 Frequencies --    333.9309               380.9446               405.6051
 Red. masses --      3.3079                 3.2894                 2.6355
 Frc consts  --      0.2173                 0.2813                 0.2555
 IR Inten    --      0.6955                 0.1202                 1.2870

                     13                     14                     15
                      A                      A                      A
 Frequencies --    468.4180               505.5305               630.1599
 Red. masses --      5.4848                 3.4385                 6.5872
 Frc consts  --      0.7091                 0.5177                 1.5412
 IR Inten    --      6.0842                 0.3731                28.5510

                     16                     17                     18
                      A                      A                      A
 Frequencies --    695.6424               698.9801               765.1652
 Red. masses --      3.6275                 3.5699                10.3257
 Frc consts  --      1.0343                 1.0276                 3.5619
 IR Inten    --      7.1160                 3.3822                 0.0846

                     19                     20                     21
                      A                      A                      A
 Frequencies --    877.2193               882.1396               896.0868
 Red. masses --      3.2340                 3.0512                 4.0311
 Frc consts  --      1.4663                 1.3989                 1.9071
 IR Inten    --      4.6972                 5.0411                 0.5080

                     22                     23                     24
                      A                      A                      A
 Frequencies --    923.6110               924.2014               941.0441
 Red. masses --      1.2874                 1.2558                 2.2392
 Frc consts  --      0.6471                 0.6320                 1.1683
 IR Inten    --      0.0243                 1.2936                10.6215

                     25                     26                     27
                      A                      A                      A
 Frequencies --    966.2821               985.1382               991.9506
 Red. masses --      3.1067                 5.9295                 6.8995
 Frc consts  --      1.7090                 3.3905                 3.9999
 IR Inten    --     22.9495                 0.8312                98.1834

                     28                     29                     30
                      A                      A                      A
 Frequencies --   1052.4180              1116.3196              1118.1595
 Red. masses --      7.2738                 2.1219                 2.1463
 Frc consts  --      4.7467                 1.5580                 1.5810
 IR Inten    --     20.4011                16.2213                 3.7695

                     31                     32                     33
                      A                      A                      A
 Frequencies --   1129.7272              1130.0318              1168.7683
 Red. masses --      1.8020                 1.7796                 2.0444
 Frc consts  --      1.3550                 1.3389                 1.6454
 IR Inten    --      3.4785                 2.3699                 5.1892

                     34                     35                     36
                      A                      A                      A
 Frequencies --   1169.9030              1224.2376              1224.9569
 Red. masses --      2.0501                 1.1762                 1.1736
 Frc consts  --      1.6532                 1.0386                 1.0376
 IR Inten    --      5.0287                 4.3241                 0.9391

                     37                     38                     39
                      A                      A                      A
 Frequencies --   1256.5047              1285.9126              1291.3011
 Red. masses --      1.8198                 1.4741                 1.4175
 Frc consts  --      1.6928                 1.4362                 1.3926
 IR Inten    --     72.4756                18.8894                90.0791

                     40                     41                     42
                      A                      A                      A
 Frequencies --   1321.0427              1353.6456              1369.5521
 Red. masses --      1.2626                 1.4693                 1.4271
 Frc consts  --      1.2982                 1.5863                 1.5771
 IR Inten    --      1.7726                18.4372                12.5406

                     43                     44                     45
                      A                      A                      A
 Frequencies --   1389.1702              1389.2673              1407.4701
 Red. masses --      1.5024                 1.5508                 2.4001
 Frc consts  --      1.7082                 1.7635                 2.8012
 IR Inten    --     13.1120                11.6428               128.3435

                     46                     47                     48
                      A                      A                      A
 Frequencies --   1459.6041              1459.6068              1463.6163
 Red. masses --      1.0590                 1.0592                 1.0487
 Frc consts  --      1.3293                 1.3295                 1.3237
 IR Inten    --      6.5676                 6.5181                 4.7195

                     49                     50                     51
                      A                      A                      A
 Frequencies --   1463.6212              1477.8880              1485.8424
 Red. masses --      1.0487                 1.1181                 1.1390
 Frc consts  --      1.3236                 1.4389                 1.4816
 IR Inten    --      5.9106                 2.1406                11.7522

                     52                     53                     54
                      A                      A                      A
 Frequencies --   1588.8690              1740.3812              1755.6664
 Red. masses --      7.3928                11.5415                11.0135
 Frc consts  --     10.9960                20.5968                20.0014
 IR Inten    --    247.9141               130.5931                12.6393

                     55                     56                     57
                      A                      A                      A
 Frequencies --   3057.2797              3057.4032              3072.9817
 Red. masses --      1.0354                 1.0354                 1.0872
 Frc consts  --      5.7021                 5.7023                 6.0488
 IR Inten    --     31.2645                 3.6748                24.2134

                     58                     59                     60
                      A                      A                      A
 Frequencies --   3073.0292              3093.4313              3093.7633
 Red. masses --      1.0871                 1.0619                 1.0620
 Frc consts  --      6.0486                 5.9871                 5.9890
 IR Inten    --     12.0338                39.9413                20.5297

                     61                     62                     63
                      A                      A                      A
 Frequencies --   3160.4437              3160.4799              3170.1345
 Red. masses --      1.1051                 1.1051                 1.1101
 Frc consts  --      6.5034                 6.5035                 6.5731
 IR Inten    --     27.5010                 6.2449                 5.9037

                     64                     65                     66
                      A                      A                      A
 Frequencies --   3170.1921              3174.2529              3174.2555
 Red. masses --      1.1101                 1.1059                 1.1059
 Frc consts  --      6.5732                 6.5651                 6.5652
 IR Inten    --     25.4332                10.7418                 8.6462

 - Thermochemistry -
 -------------------
 Temperature   298.150 Kelvin.  Pressure   1.00000 Atm.
 Atom     1 has atomic number  6 and mass  12.00000

 Molecular mass:   168.08988 amu.
 Principal axes and moments of inertia in atomic units:
                           1         2         3
     Eigenvalues --   769.431703547.282814049.56514
           X            0.99998  -0.00000  -0.00687
           Y            0.00000   1.00000  -0.00000
           Z            0.00687   0.00000   0.99998
 This molecule is an asymmetric top.
 Rotational symmetry number  1.
 Warning -- assumption of classical behavior for rotation
           may cause significant error
 Rotational temperatures (Kelvin)      0.11257     0.02442     0.02139
 Rotational constants (GHZ):           2.34555     0.50877     0.44566
    2 imaginary frequencies ignored.
 Zero-point vibrational energy     528264.3 (Joules/Mol)
                                  126.25821 (Kcal/Mol)
 Warning -- explicit consideration of  12 degrees of freedom as
           vibrations may cause significant error
 Vibrational temperatures:     62.76   164.21   179.64   291.00   356.67
          (Kelvin)            374.86   435.12   480.45   548.09   583.58
                              673.95   727.35   906.66  1000.87  1005.68
                             1100.90  1262.12  1269.20  1289.27  1328.87
                             1329.72  1353.95  1390.26  1417.39  1427.20
                             1514.19  1606.13  1608.78  1625.43  1625.86
                             1681.60  1683.23  1761.40  1762.44  1807.83
                             1850.14  1857.89  1900.69  1947.59  1970.48
                             1998.71  1998.85  2025.04  2100.04  2100.05
                             2105.82  2105.82  2126.35  2137.80  2286.03
                             2504.02  2526.01  4398.74  4398.92  4421.34
                             4421.40  4450.76  4451.24  4547.17  4547.23
                             4561.12  4561.20  4567.04  4567.05

 Zero-point correction=                           0.201205 (Hartree/Particle)
 Thermal correction to Energy=                    0.210911
 Thermal correction to Enthalpy=                  0.211855
 Thermal correction to Gibbs Free Energy=         0.165274
 Sum of electronic and zero-point Energies=           -570.739787
 Sum of electronic and thermal Energies=              -570.730081
 Sum of electronic and thermal Enthalpies=            -570.729137
 Sum of electronic and thermal Free Energies=         -570.775717

                     E (Thermal)             CV                S
                      KCal/Mol        Cal/Mol-Kelvin    Cal/Mol-Kelvin
 Total                  132.349             37.442             98.037
 Electronic               0.000              0.000              0.000
 Translational            0.889              2.981             41.266
 Rotational               0.889              2.981             30.781
 Vibrational            130.571             31.480             25.991
 Vibration     1          0.595              1.980              5.088
 Vibration     2          0.607              1.938              3.197
 Vibration     3          0.610              1.928              3.024
 Vibration     4          0.639              1.837              2.112
 Vibration     5          0.662              1.766              1.745
 Vibration     6          0.669              1.745              1.658
 Vibration     7          0.694              1.669              1.403
 Vibration     8          0.715              1.608              1.241
 Vibration     9          0.751              1.511              1.035
 Vibration    10          0.771              1.458              0.942
 Vibration    11          0.826              1.320              0.742
 Vibration    12          0.861              1.238              0.644

 Normal termination of Gaussian 16 at Sun Jan 15 17:43:25 2023.
