 Gaussian 16, Revision A.03,
 Gaussian 16:  ES64L-G16RevA.03 25-Dec-2016

 ----------------------------------------------------------------------
 #p pop=(regular,nbo,savenbos) freq=noraman def2svp empiricaldispersion
 =gd3bj output=wfx pbe1pbe
 ----------------------------------------------------------------------

 ------
 03_sub
 ------
 Symbolic Z-matrix:
 Charge =  0 Multiplicity = 1

                         Standard orientation:
 ---------------------------------------------------------------------
 Center     Atomic      Atomic             Coordinates (Angstroms)
 Number     Number       Type             X           Y           Z
 ---------------------------------------------------------------------
      1          6           0        2.592655    1.478159    0.645484
      2          6           0        2.607477   -0.065104    0.510532
      3          1           0        2.659915   -0.574749    1.489184
      4          7           0        1.274853   -0.342320   -0.006955
      5          6           0        0.631991    0.758776   -0.055486
      6          8           0        1.238558    1.871184    0.300683
      7          6           0       -0.792313    0.682810   -0.419408
      8          7           0       -1.273074   -0.483013   -0.607214
      9          6           0       -2.709305   -0.355682   -0.796137
     10          1           0       -2.974087   -0.807814   -1.764929
     11          6           0       -2.899572    1.184390   -0.815734
     12          8           0       -1.591261    1.726278   -0.494802
     13          6           0       -3.466886   -1.119031    0.302493
     14          6           0       -4.969965   -0.998259    0.091439
     15          6           0       -3.037759   -0.705831    1.704403
     16          6           0        3.723578   -0.611616   -0.383163
     17          6           0        3.510815   -2.085340   -0.705694
     18          6           0        5.072582   -0.373660    0.286412
     19          1           0        3.269766    1.972846   -0.067468
     20          1           0        2.796877    1.848478    1.658100
     21          1           0       -3.604518    1.554183   -0.058649
     22          1           0       -3.187072    1.579081   -1.799751
     23          1           0       -3.169394   -2.171401    0.154100
     24          1           0       -5.329797    0.034210    0.240683
     25          1           0       -5.509853   -1.633737    0.808515
     26          1           0       -5.263576   -1.316985   -0.921061
     27          1           0       -3.198405    0.369416    1.896124
     28          1           0       -1.977931   -0.939826    1.890211
     29          1           0       -3.620428   -1.258015    2.456162
     30          1           0        3.692934   -0.035438   -1.327935
     31          1           0        3.383592   -2.679841    0.211929
     32          1           0        4.368323   -2.481297   -1.270020
     33          1           0        2.609354   -2.241668   -1.316455
     34          1           0        5.140560   -0.937585    1.230701
     35          1           0        5.249212    0.689911    0.514997
     36          1           0        5.893900   -0.709809   -0.363143
 ---------------------------------------------------------------------

 SCF Done:  E(RPBE1PBE) =  -727.906774504     A.U. after   14 cycles

 The electronic state is 1-A.
 Alpha  occ. eigenvalues --  -19.25484 -19.25457 -14.36274 -14.36228 -10.32253
 Alpha  occ. eigenvalues --  -10.32193 -10.29441 -10.29330 -10.26412 -10.26406
 Alpha  occ. eigenvalues --  -10.23877 -10.23819 -10.22891 -10.22846 -10.22086
 Alpha  occ. eigenvalues --  -10.21459  -1.13489  -1.12095  -0.93730  -0.91347
 Alpha  occ. eigenvalues --   -0.84062  -0.81959  -0.78327  -0.75093  -0.69899
 Alpha  occ. eigenvalues --   -0.69622  -0.67287  -0.65180  -0.64574  -0.58488
 Alpha  occ. eigenvalues --   -0.57640  -0.56086  -0.53729  -0.52561  -0.50900
 Alpha  occ. eigenvalues --   -0.48936  -0.48266  -0.46805  -0.46096  -0.44708
 Alpha  occ. eigenvalues --   -0.44209  -0.43836  -0.42620  -0.41635  -0.39925
 Alpha  occ. eigenvalues --   -0.39742  -0.39411  -0.38857  -0.38413  -0.38066
 Alpha  occ. eigenvalues --   -0.36943  -0.35490  -0.34978  -0.34933  -0.34503
 Alpha  occ. eigenvalues --   -0.33686  -0.33183  -0.29069  -0.27249  -0.25961
 Alpha  occ. eigenvalues --   -0.24012
 Alpha virt. eigenvalues --   -0.02799   0.06055   0.06659   0.08546   0.08736
 Alpha virt. eigenvalues --    0.08844   0.09233   0.10306   0.10647   0.11948
 Alpha virt. eigenvalues --    0.13010   0.13364   0.13779   0.13869   0.14775

 Mulliken charges:
               1
     1  C    0.250653
     2  C   -0.070272
     3  H    0.041510
     4  N   -0.194860
     5  C    0.132659
     6  O   -0.322372
     7  C    0.144848
     8  N   -0.197278
     9  C   -0.069056
    10  H    0.042194
    11  C    0.227579
    12  O   -0.322231
    13  C   -0.143732
    14  C   -0.032818
    15  C   -0.052796
    16  C   -0.169106
    17  C   -0.010149
    18  C   -0.031830
    19  H    0.047662
    20  H    0.053896
    21  H    0.051221
    22  H    0.054699
    23  H    0.051041
    24  H    0.030444
    25  H    0.045226
    26  H    0.039198
    27  H    0.031113
    28  H    0.065494
    29  H    0.038485
    30  H    0.025868
    31  H    0.032257
    32  H    0.032106
    33  H    0.063786
    34  H    0.037138
    35  H    0.032363
    36  H    0.045059
 Sum of Mulliken charges =  -0.00000

 Dipole moment (field-independent basis, Debye):
    X=             -0.2002    Y=              0.8546    Z=              0.4278  Tot=              0.9764
 Quadrupole moment (field-independent basis, Debye-Ang):
   XX=            -79.7341   YY=           -102.4239   ZZ=            -94.4092
   XY=              1.9513   XZ=              3.3719   YZ=             -1.0006

  Exact polarizability: 188.953   1.673 133.575   6.976   0.930 117.074
 Approx polarizability: 210.232  -0.636 210.561   9.278   2.233 168.232

 Summary of Natural Population Analysis:

                                       Natural Population
                Natural  -----------------------------------------------
    Atom  No    Charge         Core      Valence    Rydberg      Total
 -----------------------------------------------------------------------
      C    1   -0.08476      1.99905     4.06732    0.01839     6.08476
      C    2   -0.09066      1.99900     4.06824    0.02342     6.09066
      H    3    0.23564      0.00000     0.75977    0.00459     0.76436
      N    4   -0.50895      1.99933     5.49317    0.01645     7.50895
      C    5    0.54198      1.99897     3.41716    0.04189     5.45802
      O    6   -0.54165      1.99966     6.53094    0.01106     8.54165
      C    7    0.54031      1.99897     3.41920    0.04152     5.45969
      N    8   -0.50628      1.99934     5.49039    0.01656     7.50628
      C    9   -0.08801      1.99900     4.06491    0.02410     6.08801
      H   10    0.24050      0.00000     0.75578    0.00372     0.75950
      C   11   -0.09130      1.99905     4.07327    0.01897     6.09130
      O   12   -0.54184      1.99965     6.53104    0.01115     8.54184
      C   13   -0.26361      1.99898     4.24851    0.01612     6.26361
      C   14   -0.65385      1.99922     4.64396    0.01067     6.65385
      C   15   -0.66387      1.99922     4.65323    0.01142     6.66387
      C   16   -0.25941      1.99898     4.24495    0.01548     6.25941
      C   17   -0.65143      1.99923     4.64028    0.01192     6.65143
      C   18   -0.65242      1.99922     4.64237    0.01083     6.65242
      H   19    0.20833      0.00000     0.78845    0.00322     0.79167
      H   20    0.21833      0.00000     0.77904    0.00263     0.78167
      H   21    0.21048      0.00000     0.78643    0.00309     0.78952
      H   22    0.21634      0.00000     0.78085    0.00280     0.78366
      H   23    0.24901      0.00000     0.74589    0.00510     0.75099
      H   24    0.21387      0.00000     0.78332    0.00281     0.78613
      H   25    0.23091      0.00000     0.76659    0.00250     0.76909
      H   26    0.22393      0.00000     0.77346    0.00261     0.77607
      H   27    0.21370      0.00000     0.78368    0.00263     0.78630
      H   28    0.24205      0.00000     0.75478    0.00317     0.75795
      H   29    0.22795      0.00000     0.76961    0.00245     0.77205
      H   30    0.23091      0.00000     0.76397    0.00512     0.76909
      H   31    0.21887      0.00000     0.77828    0.00285     0.78113
      H   32    0.22006      0.00000     0.77744    0.00250     0.77994
      H   33    0.24692      0.00000     0.75036    0.00272     0.75308
      H   34    0.21942      0.00000     0.77754    0.00304     0.78058
      H   35    0.21815      0.00000     0.77940    0.00245     0.78185
      H   36    0.23043      0.00000     0.76711    0.00246     0.76957
 =======================================================================
   * Total *   -0.00000     31.98687    89.65071    0.36242   122.00000

 ******    2 imaginary frequencies (negative Signs) ******

                      1                      2                      3
                      A                      A                      A
 Frequencies --    -86.2355               -53.9694                37.6274
 Red. masses --      6.6196                 4.7218                 3.1226
 Frc consts  --      0.0290                 0.0081                 0.0026
 IR Inten    --      0.2152                 0.9187                 0.0335

                      4                      5                      6
                      A                      A                      A
 Frequencies --     66.9289                81.2327               100.8745
 Red. masses --      2.9503                 2.8237                 3.9778
 Frc consts  --      0.0078                 0.0110                 0.0238
 IR Inten    --      0.2570                 0.2558                 0.6184

                      7                      8                      9
                      A                      A                      A
 Frequencies --    121.8565               192.1483               199.7034
 Red. masses --      3.0155                 2.4300                 2.7969
 Frc consts  --      0.0264                 0.0529                 0.0657
 IR Inten    --      1.8744                 3.0993                 1.5907

                     10                     11                     12
                      A                      A                      A
 Frequencies --    208.2321               225.7378               233.2717
 Red. masses --      1.1797                 1.2059                 1.3593
 Frc consts  --      0.0301                 0.0362                 0.0436
 IR Inten    --      1.5709                 0.3919                 0.2805

                     13                     14                     15
                      A                      A                      A
 Frequencies --    245.7987               254.6558               280.5571
 Red. masses --      1.1331                 1.9061                 2.0471
 Frc consts  --      0.0403                 0.0728                 0.0949
 IR Inten    --      0.1563                 0.2027                 0.6774

                     16                     17                     18
                      A                      A                      A
 Frequencies --    299.3544               324.7271               355.8799
 Red. masses --      2.9956                 3.0411                 2.6838
 Frc consts  --      0.1582                 0.1889                 0.2003
 IR Inten    --      0.8403                 0.3397                 0.6780

                     19                     20                     21
                      A                      A                      A
 Frequencies --    384.9543               403.1926               452.1390
 Red. masses --      2.9677                 2.8296                 2.5460
 Frc consts  --      0.2591                 0.2710                 0.3067
 IR Inten    --      0.4138                 1.3712                 0.1483

                     22                     23                     24
                      A                      A                      A
 Frequencies --    504.4068               535.7789               546.0289
 Red. masses --      4.7961                 2.8841                 3.8790
 Frc consts  --      0.7189                 0.4878                 0.6814
 IR Inten    --      5.1069                 0.7222                 1.9001

                     25                     26                     27
                      A                      A                      A
 Frequencies --    619.4054               724.9679               749.5387
 Red. masses --      6.0826                 3.1639                 3.7311
 Frc consts  --      1.3750                 0.9797                 1.2350
 IR Inten    --     20.6246                 4.6357                 4.9785

                     28                     29                     30
                      A                      A                      A
 Frequencies --    778.0979               820.6821               847.2690
 Red. masses --      6.0180                 3.6984                 2.8892
 Frc consts  --      2.1467                 1.4676                 1.2220
 IR Inten    --      3.3233                 8.1551                 6.3373

                     31                     32                     33
                      A                      A                      A
 Frequencies --    901.4975               914.0119               920.2732
 Red. masses --      2.6594                 2.4067                 2.0074
 Frc consts  --      1.2734                 1.1846                 1.0017
 IR Inten    --      6.1993                 8.7738                 5.6759

                     34                     35                     36
                      A                      A                      A
 Frequencies --    927.3262               930.5643               960.0510
 Red. masses --      1.2235                 1.4469                 1.8462
 Frc consts  --      0.6199                 0.7382                 1.0026
 IR Inten    --      1.0014                 1.1704                 7.3612

                     37                     38                     39
                      A                      A                      A
 Frequencies --    964.7490               970.6165               973.0340
 Red. masses --      1.4990                 1.8773                 1.3230
 Frc consts  --      0.8220                 1.0420                 0.7380
 IR Inten    --      3.8201                 3.2596                 3.0666

                     40                     41                     42
                      A                      A                      A
 Frequencies --    988.8742               998.4443              1027.9129
 Red. masses --      5.5293                 3.1502                 2.0029
 Frc consts  --      3.1857                 1.8503                 1.2469
 IR Inten    --     85.8173                30.5743                 2.9174

                     43                     44                     45
                      A                      A                      A
 Frequencies --   1041.7821              1058.5784              1097.8464
 Red. masses --      3.5452                 3.6581                 3.4297
 Frc consts  --      2.2669                 2.4152                 2.4355
 IR Inten    --      7.2051                 6.1639                11.4649

                     46                     47                     48
                      A                      A                      A
 Frequencies --   1104.5820              1138.1631              1161.0647
 Red. masses --      3.3581                 1.8221                 1.9683
 Frc consts  --      2.4140                 1.3907                 1.5633
 IR Inten    --     27.3470                 6.3797                 1.5610

                     49                     50                     51
                      A                      A                      A
 Frequencies --   1162.9857              1173.7956              1198.4955
 Red. masses --      1.9338                 2.0366                 1.5157
 Frc consts  --      1.5411                 1.6533                 1.2828
 IR Inten    --      1.9213                 1.3074                 4.2363

                     52                     53                     54
                      A                      A                      A
 Frequencies --   1204.2900              1221.5539              1228.9152
 Red. masses --      1.5410                 1.2125                 1.3051
 Frc consts  --      1.3168                 1.0660                 1.1612
 IR Inten    --      2.3038                 1.8427                 0.4033

                     55                     56                     57
                      A                      A                      A
 Frequencies --   1258.8200              1268.1386              1279.9641
 Red. masses --      1.7715                 1.3642                 1.3383
 Frc consts  --      1.6540                 1.2926                 1.2918
 IR Inten    --     76.0276                23.9358                33.6164

                     58                     59                     60
                      A                      A                      A
 Frequencies --   1292.8757              1321.8540              1337.7918
 Red. masses --      1.3989                 1.4438                 1.6800
 Frc consts  --      1.3777                 1.4863                 1.7715
 IR Inten    --     20.9399                26.5785                 0.5764

                     61                     62                     63
                      A                      A                      A
 Frequencies --   1338.8340              1346.2328              1365.8136
 Red. masses --      1.3708                 1.4720                 1.3259
 Frc consts  --      1.4477                 1.5718                 1.4573
 IR Inten    --      1.2207                 9.6602                 5.3009

                     64                     65                     66
                      A                      A                      A
 Frequencies --   1384.9868              1390.9788              1395.1666
 Red. masses --      1.5769                 1.5070                 1.4370
 Frc consts  --      1.7822                 1.7179                 1.6480
 IR Inten    --     24.7211                 5.2091                21.1285

                     67                     68                     69
                      A                      A                      A
 Frequencies --   1400.1557              1404.0693              1408.0024
 Red. masses --      1.2796                 1.5695                 1.9671
 Frc consts  --      1.4780                 1.8230                 2.2977
 IR Inten    --     10.6661                32.8375                84.3235

                     70                     71                     72
                      A                      A                      A
 Frequencies --   1454.2879              1456.8437              1457.8956
 Red. masses --      1.0591                 1.0492                 1.0405
 Frc consts  --      1.3197                 1.3120                 1.3030
 IR Inten    --      3.0588                 1.5961                 0.6309

                     73                     74                     75
                      A                      A                      A
 Frequencies --   1463.5824              1472.7455              1473.8544
 Red. masses --      1.0734                 1.0809                 1.0609
 Frc consts  --      1.3547                 1.3813                 1.3577
 IR Inten    --      0.3764                 9.8449                12.0240

                     76                     77                     78
                      A                      A                      A
 Frequencies --   1479.4860              1482.6052              1483.5407
 Red. masses --      1.0925                 1.1086                 1.0824
 Frc consts  --      1.4089                 1.4358                 1.4036
 IR Inten    --      2.1447                11.3530                12.9404

                     79                     80                     81
                      A                      A                      A
 Frequencies --   1489.1015              1587.0648              1737.3513
 Red. masses --      1.0932                 7.2167                11.5385
 Frc consts  --      1.4283                10.7097                20.5200
 IR Inten    --     12.7927               231.2397               113.3634

                     82                     83                     84
                      A                      A                      A
 Frequencies --   1751.5241              3030.9045              3044.6748
 Red. masses --     10.9424                 1.0840                 1.0392
 Frc consts  --     19.7786                 5.8671                 5.6758
 IR Inten    --     17.7356                 6.0460                19.5537

                     85                     86                     87
                      A                      A                      A
 Frequencies --   3047.1155              3048.3849              3053.2498
 Red. masses --      1.0408                 1.0395                 1.0845
 Frc consts  --      5.6938                 5.6912                 5.9564
 IR Inten    --     16.2563                16.9512                31.7120

                     88                     89                     90
                      A                      A                      A
 Frequencies --   3060.3023              3070.4128              3085.9395
 Red. masses --      1.0385                 1.0847                 1.0868
 Frc consts  --      5.7306                 6.0249                 6.0976
 IR Inten    --     25.4014                 6.9424                24.0534

                     91                     92                     93
                      A                      A                      A
 Frequencies --   3091.0332              3103.6126              3133.8436
 Red. masses --      1.0625                 1.0610                 1.1018
 Frc consts  --      5.9814                 6.0212                 6.3755
 IR Inten    --     28.0639                30.0483                15.9216

                     94                     95                     96
                      A                      A                      A
 Frequencies --   3137.3821              3138.2167              3152.8480
 Red. masses --      1.1032                 1.1005                 1.1033
 Frc consts  --      6.3981                 6.3855                 6.4616
 IR Inten    --     21.5993                29.0241                 7.8069

                     97                     98                     99
                      A                      A                      A
 Frequencies --   3152.9068              3153.6345              3156.5016
 Red. masses --      1.1036                 1.1025                 1.1038
 Frc consts  --      6.4640                 6.4606                 6.4794
 IR Inten    --      3.9186                25.9505                37.2825

                    100                    101                    102
                      A                      A                      A
 Frequencies --   3161.4381              3169.8224              3170.7650
 Red. masses --      1.1026                 1.1128                 1.1100
 Frc consts  --      6.4929                 6.5876                 6.5753
 IR Inten    --     10.2655                14.3754                16.2718

 - Thermochemistry -
 -------------------
 Temperature   298.150 Kelvin.  Pressure   1.00000 Atm.
 Atom     1 has atomic number  6 and mass  12.00000

 Molecular mass:   224.15248 amu.
 Principal axes and moments of inertia in atomic units:
                           1         2         3
     Eigenvalues --  1487.798407451.308698121.15404
           X            0.99999  -0.00093  -0.00361
           Y            0.00095   0.99999   0.00452
           Z            0.00361  -0.00453   0.99998
 This molecule is an asymmetric top.
 Rotational symmetry number  1.
 Warning -- assumption of classical behavior for rotation
           may cause significant error
 Rotational temperatures (Kelvin)      0.05822     0.01162     0.01067
 Rotational constants (GHZ):           1.21303     0.24220     0.22223
    2 imaginary frequencies ignored.
 Zero-point vibrational energy     825489.2 (Joules/Mol)
                                  197.29665 (Kcal/Mol)
 Warning -- explicit consideration of  23 degrees of freedom as
           vibrations may cause significant error
 Vibrational temperatures:     54.14    96.30   116.88   145.14   175.32
          (Kelvin)            276.46   287.33   299.60   324.79   335.63
                              353.65   366.39   403.66   430.70   467.21
                              512.03   553.86   580.10   650.53   725.73
                              770.87   785.61   891.19  1043.07  1078.42
                             1119.51  1180.78  1219.03  1297.05  1315.06
                             1324.07  1334.22  1338.87  1381.30  1388.06
                             1396.50  1399.98  1422.77  1436.54  1478.94
                             1498.89  1523.06  1579.56  1589.25  1637.56
                             1670.51  1673.28  1688.83  1724.37  1732.70
                             1757.54  1768.13  1811.16  1824.57  1841.58
                             1860.16  1901.85  1924.78  1926.28  1936.93
                             1965.10  1992.69  2001.31  2007.33  2014.51
                             2020.14  2025.80  2092.40  2096.07  2097.59
                             2105.77  2118.95  2120.55  2128.65  2133.14
                             2134.48  2142.48  2283.43  2499.66  2520.05
                             4360.80  4380.61  4384.12  4385.95  4392.95
                             4403.09  4417.64  4439.98  4447.31  4465.41
                             4508.90  4513.99  4515.19  4536.25  4536.33
                             4537.38  4541.50  4548.60  4560.67  4562.02

 Zero-point correction=                           0.314412 (Hartree/Particle)
 Thermal correction to Energy=                    0.329461
 Thermal correction to Enthalpy=                  0.330405
 Thermal correction to Gibbs Free Energy=         0.272187
 Sum of electronic and zero-point Energies=           -727.592362
 Sum of electronic and thermal Energies=              -727.577314
 Sum of electronic and thermal Enthalpies=            -727.576370
 Sum of electronic and thermal Free Energies=         -727.634588

                     E (Thermal)             CV                S
                      KCal/Mol        Cal/Mol-Kelvin    Cal/Mol-Kelvin
 Total                  206.740             58.192            122.530
 Electronic               0.000              0.000              0.000
 Translational            0.889              2.981             42.124
 Rotational               0.889              2.981             32.865
 Vibrational            204.962             52.231             47.541
 Vibration     1          0.594              1.982              5.380
 Vibration     2          0.598              1.970              4.242
 Vibration     3          0.600              1.962              3.861
 Vibration     4          0.604              1.948              3.437
 Vibration     5          0.609              1.931              3.071
 Vibration     6          0.634              1.851              2.207
 Vibration     7          0.638              1.840              2.136
 Vibration     8          0.642              1.828              2.059
 Vibration     9          0.650              1.802              1.913
 Vibration    10          0.654              1.790              1.854
 Vibration    11          0.660              1.770              1.761
 Vibration    12          0.665              1.755              1.698
 Vibration    13          0.680              1.710              1.530
 Vibration    14          0.692              1.675              1.421
 Vibration    15          0.709              1.626              1.286
 Vibration    16          0.731              1.563              1.140
 Vibration    17          0.754              1.502              1.020
 Vibration    18          0.769              1.463              0.951
 Vibration    19          0.811              1.356              0.789
 Vibration    20          0.860              1.240              0.647
 Vibration    21          0.891              1.171              0.574
 Vibration    22          0.901              1.148              0.552
 Vibration    23          0.979              0.991              0.417

 Normal termination of Gaussian 16 at Sun Jan 15 21:31:14 2023.
