 Gaussian 16, Revision A.03,
 Gaussian 16:  ES64L-G16RevA.03 25-Dec-2016

 ----------------------------------------------------------------------
 #p pop=(regular,nbo,savenbos) freq=noraman def2svp empiricaldispersion
 =gd3bj output=wfx pbe1pbe
 ----------------------------------------------------------------------

 ------
 04_sub
 ------
 Symbolic Z-matrix:
 Charge =  0 Multiplicity = 1

                         Standard orientation:
 ---------------------------------------------------------------------
 Center     Atomic      Atomic             Coordinates (Angstroms)
 Number     Number       Type             X           Y           Z
 ---------------------------------------------------------------------
      1          6           0        2.789274    1.548402    0.634602
      2          6           0        2.685679    0.005923    0.519569
      3          1           0        2.832138   -0.499064    1.487352
      4          7           0        1.286950   -0.182211    0.164126
      5          6           0        0.722325    0.960386    0.141129
      6          8           0        1.438049    2.034166    0.401319
      7          6           0       -0.722796    0.960786   -0.142089
      8          7           0       -1.287165   -0.181854   -0.169066
      9          6           0       -2.686441    0.007279   -0.521617
     10          1           0       -2.834967   -0.495413   -1.490254
     11          6           0       -2.790044    1.550088   -0.632890
     12          8           0       -1.438978    2.035363   -0.397622
     13          6           0       -3.599020   -0.637013    0.509833
     14          6           0       -5.084147   -0.630682    0.145352
     15          6           0       -5.352282   -1.359699   -1.168632
     16          6           0       -5.890159   -1.245728    1.284212
     17          6           0        3.600209   -0.636156   -0.511455
     18          6           0        5.084708   -0.629980   -0.144465
     19          6           0        5.350776   -1.360553    1.169106
     20          6           0        5.892795   -1.243415   -1.282707
     21          1           0        3.435993    1.991847   -0.137118
     22          1           0        3.104001    1.909092    1.622513
     23          1           0       -3.437298    1.991713    0.139398
     24          1           0       -3.104072    1.913108   -1.620189
     25          1           0       -3.251949   -1.677770    0.621372
     26          1           0       -3.445746   -0.131672    1.479913
     27          1           0       -5.416443    0.420468    0.032015
     28          1           0       -4.923838   -2.374563   -1.145113
     29          1           0       -4.914322   -0.841206   -2.035572
     30          1           0       -6.433398   -1.445529   -1.355901
     31          1           0       -5.604746   -2.299607    1.433778
     32          1           0       -6.969470   -1.217142    1.070734
     33          1           0       -5.718672   -0.715705    2.234074
     34          1           0        3.253645   -1.676817   -0.625491
     35          1           0        3.448387   -0.129127   -1.480891
     36          1           0        5.416591    0.421099   -0.029258
     37          1           0        4.922565   -2.375458    1.143646
     38          1           0        4.911275   -0.843155    2.035904
     39          1           0        6.431586   -1.446424    1.358073
     40          1           0        5.607981   -2.297225   -1.433984
     41          1           0        6.971743   -1.214723   -1.067439
     42          1           0        5.722686   -0.712337   -2.232227
 ---------------------------------------------------------------------

 SCF Done:  E(RPBE1PBE) =  -806.382028995     A.U. after   13 cycles

 The electronic state is 1-A.
 Alpha  occ. eigenvalues --  -19.25315 -19.25307 -14.36034 -14.36027 -10.32007
 Alpha  occ. eigenvalues --  -10.31991 -10.29344 -10.29343 -10.26280 -10.26278
 Alpha  occ. eigenvalues --  -10.24043 -10.24043 -10.22798 -10.22798 -10.22608
 Alpha  occ. eigenvalues --  -10.22607 -10.22410 -10.22410  -1.13235  -1.11895
 Alpha  occ. eigenvalues --   -0.93582  -0.91102  -0.84326  -0.83248  -0.80507
 Alpha  occ. eigenvalues --   -0.76950  -0.71610  -0.70447  -0.69876  -0.69858
 Alpha  occ. eigenvalues --   -0.65886  -0.62327  -0.61785  -0.57764  -0.57521
 Alpha  occ. eigenvalues --   -0.55509  -0.54021  -0.52375  -0.51177  -0.48492
 Alpha  occ. eigenvalues --   -0.47881  -0.47806  -0.47396  -0.46573  -0.45084
 Alpha  occ. eigenvalues --   -0.44169  -0.43307  -0.42112  -0.41365  -0.41349
 Alpha  occ. eigenvalues --   -0.40543  -0.39969  -0.39648  -0.39625  -0.37585
 Alpha  occ. eigenvalues --   -0.37583  -0.37335  -0.35964  -0.35931  -0.34618
 Alpha  occ. eigenvalues --   -0.34539  -0.33888  -0.33835  -0.33188  -0.33144
 Alpha  occ. eigenvalues --   -0.29045  -0.27167  -0.25549  -0.23875
 Alpha virt. eigenvalues --   -0.02413   0.05801   0.05805   0.08298   0.08519
 Alpha virt. eigenvalues --    0.08642   0.08781   0.09070   0.09260   0.11332
 Alpha virt. eigenvalues --    0.11333   0.12229   0.12960   0.13005   0.13295

 Mulliken charges:
               1
     1  C    0.242575
     2  C   -0.092806
     3  H    0.046842
     4  N   -0.200572
     5  C    0.138639
     6  O   -0.325724
     7  C    0.138653
     8  N   -0.200593
     9  C   -0.092808
    10  H    0.046797
    11  C    0.242532
    12  O   -0.325712
    13  C    0.041934
    14  C   -0.221487
    15  C   -0.041367
    16  C   -0.020050
    17  C    0.041889
    18  C   -0.221528
    19  C   -0.041366
    20  C   -0.020046
    21  H    0.045312
    22  H    0.053102
    23  H    0.045339
    24  H    0.053104
    25  H    0.046569
    26  H    0.021775
    27  H    0.030281
    28  H    0.040888
    29  H    0.043253
    30  H    0.039204
    31  H    0.036043
    32  H    0.037591
    33  H    0.038054
    34  H    0.046554
    35  H    0.021794
    36  H    0.030301
    37  H    0.040888
    38  H    0.043252
    39  H    0.039204
    40  H    0.036043
    41  H    0.037591
    42  H    0.038054
 Sum of Mulliken charges =  -0.00000

 Dipole moment (field-independent basis, Debye):
    X=             -0.0006    Y=              0.8355    Z=              0.0038  Tot=              0.8355
 Quadrupole moment (field-independent basis, Debye-Ang):
   XX=            -89.8248   YY=           -115.5392   ZZ=           -108.3600
   XY=             -0.0033   XZ=              3.5719   YZ=             -0.0176

  Exact polarizability: 224.153  -0.003 150.773   3.654   0.007 138.186
 Approx polarizability: 241.125  -0.008 238.538   7.363   0.068 194.444

 Summary of Natural Population Analysis:

                                       Natural Population
                Natural  -----------------------------------------------
    Atom  No    Charge         Core      Valence    Rydberg      Total
 -----------------------------------------------------------------------
      C    1   -0.08690      1.99905     4.06944    0.01841     6.08690
      C    2   -0.08747      1.99902     4.06672    0.02174     6.08747
      H    3    0.23724      0.00000     0.75885    0.00391     0.76276
      N    4   -0.50129      1.99933     5.48518    0.01678     7.50129
      C    5    0.53811      1.99897     3.42100    0.04192     5.46189
      O    6   -0.54345      1.99966     6.53278    0.01101     8.54345
      C    7    0.53810      1.99897     3.42101    0.04192     5.46190
      N    8   -0.50129      1.99933     5.48519    0.01678     7.50129
      C    9   -0.08746      1.99902     4.06670    0.02174     6.08746
      H   10    0.23726      0.00000     0.75883    0.00390     0.76274
      C   11   -0.08689      1.99905     4.06943    0.01841     6.08689
      O   12   -0.54344      1.99966     6.53278    0.01101     8.54344
      C   13   -0.45546      1.99907     4.43705    0.01934     6.45546
      C   14   -0.25530      1.99902     4.24333    0.01295     6.25530
      C   15   -0.65694      1.99923     4.64652    0.01119     6.65694
      C   16   -0.64507      1.99922     4.63466    0.01118     6.64507
      C   17   -0.45545      1.99907     4.43704    0.01934     6.45545
      C   18   -0.25530      1.99902     4.24333    0.01295     6.25530
      C   19   -0.65694      1.99923     4.64652    0.01119     6.65694
      C   20   -0.64507      1.99922     4.63466    0.01118     6.64507
      H   21    0.20751      0.00000     0.78929    0.00320     0.79249
      H   22    0.21613      0.00000     0.78117    0.00270     0.78387
      H   23    0.20755      0.00000     0.78925    0.00320     0.79245
      H   24    0.21609      0.00000     0.78121    0.00270     0.78391
      H   25    0.24361      0.00000     0.75196    0.00442     0.75639
      H   26    0.22947      0.00000     0.76666    0.00387     0.77053
      H   27    0.22282      0.00000     0.77233    0.00485     0.77718
      H   28    0.22157      0.00000     0.77551    0.00292     0.77843
      H   29    0.22108      0.00000     0.77666    0.00226     0.77892
      H   30    0.22759      0.00000     0.76987    0.00254     0.77241
      H   31    0.21915      0.00000     0.77791    0.00294     0.78085
      H   32    0.22347      0.00000     0.77400    0.00253     0.77653
      H   33    0.22411      0.00000     0.77344    0.00245     0.77589
      H   34    0.24360      0.00000     0.75197    0.00442     0.75640
      H   35    0.22948      0.00000     0.76664    0.00388     0.77052
      H   36    0.22283      0.00000     0.77232    0.00485     0.77717
      H   37    0.22157      0.00000     0.77552    0.00292     0.77843
      H   38    0.22107      0.00000     0.77667    0.00226     0.77893
      H   39    0.22759      0.00000     0.76987    0.00254     0.77241
      H   40    0.21915      0.00000     0.77791    0.00294     0.78085
      H   41    0.22347      0.00000     0.77400    0.00253     0.77653
      H   42    0.22411      0.00000     0.77344    0.00245     0.77589
 =======================================================================
   * Total *    0.00000     35.98513   101.60864    0.40623   138.00000

 ******    2 imaginary frequencies (negative Signs) ******

                      1                      2                      3
                      A                      A                      A
 Frequencies --    -97.8987               -75.9108                21.0337
 Red. masses --      7.0881                 5.4947                 3.0993
 Frc consts  --      0.0400                 0.0187                 0.0008
 IR Inten    --      0.1973                 1.0597                 0.0168

                      4                      5                      6
                      A                      A                      A
 Frequencies --     33.7313                43.1784                60.6305
 Red. masses --      3.2972                 2.8282                 2.8936
 Frc consts  --      0.0022                 0.0031                 0.0063
 IR Inten    --      0.1202                 0.0888                 0.1049

                      7                      8                      9
                      A                      A                      A
 Frequencies --     77.4095               114.8711               126.0444
 Red. masses --      2.9944                 2.6260                 2.7164
 Frc consts  --      0.0106                 0.0204                 0.0254
 IR Inten    --      0.0233                 2.6291                 0.3206

                     10                     11                     12
                      A                      A                      A
 Frequencies --    155.8570               167.7685               204.1471
 Red. masses --      3.8299                 3.1864                 2.6746
 Frc consts  --      0.0548                 0.0528                 0.0657
 IR Inten    --      1.3876                 2.4499                 0.9391

                     13                     14                     15
                      A                      A                      A
 Frequencies --    233.5419               233.9265               247.6710
 Red. masses --      1.0962                 1.1226                 1.2058
 Frc consts  --      0.0352                 0.0362                 0.0436
 IR Inten    --      0.0907                 0.2016                 0.0277

                     16                     17                     18
                      A                      A                      A
 Frequencies --    253.1128               283.6714               284.1081
 Red. masses --      1.2701                 2.9693                 3.0443
 Frc consts  --      0.0479                 0.1408                 0.1448
 IR Inten    --      0.1364                 0.2694                 0.3556

                     19                     20                     21
                      A                      A                      A
 Frequencies --    328.4922               347.0308               395.8630
 Red. masses --      2.3412                 2.5176                 2.3060
 Frc consts  --      0.1488                 0.1786                 0.2129
 IR Inten    --      0.6064                 0.9657                 0.0076

                     22                     23                     24
                      A                      A                      A
 Frequencies --    403.7572               412.2257               421.4947
 Red. masses --      2.4992                 2.5712                 2.2458
 Frc consts  --      0.2400                 0.2574                 0.2351
 IR Inten    --      1.6212                 0.6099                 0.1751

                     25                     26                     27
                      A                      A                      A
 Frequencies --    463.2096               482.1369               508.3649
 Red. masses --      1.9413                 2.4123                 4.7217
 Frc consts  --      0.2454                 0.3304                 0.7189
 IR Inten    --      0.8684                 0.4327                 4.9028

                     28                     29                     30
                      A                      A                      A
 Frequencies --    526.8547               631.6559               738.3840
 Red. masses --      4.0978                 6.4548                 4.4721
 Frc consts  --      0.6702                 1.5174                 1.4366
 IR Inten    --      0.7394                33.1682                 3.0952

                     31                     32                     33
                      A                      A                      A
 Frequencies --    740.7671               763.6358               846.2595
 Red. masses --      4.4211                 9.4073                 2.3796
 Frc consts  --      1.4294                 3.2321                 1.0041
 IR Inten    --     10.5143                 0.5786                 2.4082

                     34                     35                     36
                      A                      A                      A
 Frequencies --    846.5121               859.0423               861.0994
 Red. masses --      2.3825                 1.9645                 1.8701
 Frc consts  --      1.0059                 0.8541                 0.8170
 IR Inten    --      1.4553                 0.6800                 4.0078

                     37                     38                     39
                      A                      A                      A
 Frequencies --    897.2045               899.4120               921.5045
 Red. masses --      1.7264                 1.7388                 3.5079
 Frc consts  --      0.8188                 0.8287                 1.7551
 IR Inten    --      8.1270                 1.6693                13.8498

                     40                     41                     42
                      A                      A                      A
 Frequencies --    923.8534               924.2215               962.8043
 Red. masses --      1.1613                 1.3005                 2.2889
 Frc consts  --      0.5840                 0.6545                 1.2501
 IR Inten    --      0.0024                 1.8354                 2.8189

                     43                     44                     45
                      A                      A                      A
 Frequencies --    970.2888               970.5900               973.1399
 Red. masses --      1.4602                 1.3748                 2.0741
 Frc consts  --      0.8100                 0.7631                 1.1573
 IR Inten    --     10.4865                 0.2927                48.7430

                     46                     47                     48
                      A                      A                      A
 Frequencies --    981.3277               984.2203              1015.5054
 Red. masses --      3.2771                 4.0098                 1.8085
 Frc consts  --      1.8594                 2.2885                 1.0988
 IR Inten    --      0.4302                66.7359                 0.0663

                     49                     50                     51
                      A                      A                      A
 Frequencies --   1020.0582              1053.5380              1070.4909
 Red. masses --      1.6872                 4.9813                 4.2256
 Frc consts  --      1.0344                 3.2576                 2.8530
 IR Inten    --      5.6264                 9.1571                 2.0744

                     52                     53                     54
                      A                      A                      A
 Frequencies --   1074.1535              1126.8622              1128.7457
 Red. masses --      4.4419                 1.9238                 1.9504
 Frc consts  --      3.0196                 1.4393                 1.4640
 IR Inten    --     22.0578                 8.8388                 1.1334

                     55                     56                     57
                      A                      A                      A
 Frequencies --   1162.9940              1163.1581              1174.7346
 Red. masses --      2.0250                 2.0500                 1.9133
 Frc consts  --      1.6137                 1.6341                 1.5557
 IR Inten    --      1.2491                 1.1432                 2.0464

                     58                     59                     60
                      A                      A                      A
 Frequencies --   1175.7601              1191.1339              1191.2603
 Red. masses --      1.9099                 1.6605                 1.6608
 Frc consts  --      1.5556                 1.3880                 1.3886
 IR Inten    --      6.4389                 8.0845                 0.9386

                     61                     62                     63
                      A                      A                      A
 Frequencies --   1216.6117              1217.1847              1255.0398
 Red. masses --      1.2413                 1.2421                 1.5619
 Frc consts  --      1.0825                 1.0843                 1.4495
 IR Inten    --      3.5924                 0.7836                40.3506

                     64                     65                     66
                      A                      A                      A
 Frequencies --   1257.3652              1260.6086              1264.9180
 Red. masses --      1.3545                 1.5073                 1.2745
 Frc consts  --      1.2617                 1.4113                 1.2015
 IR Inten    --      0.0127                30.5965                21.4443

                     67                     68                     69
                      A                      A                      A
 Frequencies --   1265.0385              1302.5265              1312.6707
 Red. masses --      1.2731                 1.4775                 1.4521
 Frc consts  --      1.2004                 1.4769                 1.4742
 IR Inten    --     20.4656                 7.4971                26.2999

                     70                     71                     72
                      A                      A                      A
 Frequencies --   1328.9996              1344.9593              1350.4595
 Red. masses --      1.2754                 1.3856                 1.3403
 Frc consts  --      1.3272                 1.4767                 1.4401
 IR Inten    --      6.5316                 9.0201                 3.7669

                     73                     74                     75
                      A                      A                      A
 Frequencies --   1364.1327              1369.4033              1389.9660
 Red. masses --      1.4024                 1.5011                 1.4689
 Frc consts  --      1.5376                 1.6585                 1.6721
 IR Inten    --     27.3494                 1.9359                11.7302

                     76                     77                     78
                      A                      A                      A
 Frequencies --   1390.6902              1398.8420              1399.6125
 Red. masses --      1.4585                 1.5233                 1.3710
 Frc consts  --      1.6619                 1.7562                 1.5823
 IR Inten    --      3.0355                 3.3990                15.7377

                     79                     80                     81
                      A                      A                      A
 Frequencies --   1401.9951              1403.6798              1408.3726
 Red. masses --      1.5693                 1.7075                 2.3075
 Frc consts  --      1.8174                 1.9822                 2.6967
 IR Inten    --     39.5050                 0.4127               110.9161

                     82                     83                     84
                      A                      A                      A
 Frequencies --   1448.0845              1448.7548              1458.4832
 Red. masses --      1.0832                 1.0884                 1.0420
 Frc consts  --      1.3383                 1.3459                 1.3060
 IR Inten    --      0.0511                 5.4995                 2.7365

                     85                     86                     87
                      A                      A                      A
 Frequencies --   1458.5336              1464.7882              1465.0256
 Red. masses --      1.0421                 1.0725                 1.0730
 Frc consts  --      1.3061                 1.3559                 1.3569
 IR Inten    --      0.0681                 0.0190                 8.0414

                     88                     89                     90
                      A                      A                      A
 Frequencies --   1475.0835              1475.1070              1477.9596
 Red. masses --      1.0653                 1.0645                 1.1137
 Frc consts  --      1.3656                 1.3647                 1.4333
 IR Inten    --      9.2704                 1.0734                 1.4530

                     91                     92                     93
                      A                      A                      A
 Frequencies --   1482.5803              1483.0299              1485.4476
 Red. masses --      1.0745                 1.0704                 1.1312
 Frc consts  --      1.3915                 1.3871                 1.4707
 IR Inten    --     30.9106                 5.3320                 5.5842

                     94                     95                     96
                      A                      A                      A
 Frequencies --   1589.7310              1738.6030              1755.3807
 Red. masses --      7.5704                11.5444                11.0796
 Frc consts  --     11.2724                20.5600                20.1149
 IR Inten    --    237.0385               123.1620                19.2552

                     97                     98                     99
                      A                      A                      A
 Frequencies --   3016.4460              3016.4717              3046.9718
 Red. masses --      1.0845                 1.0845                 1.0530
 Frc consts  --      5.8140                 5.8141                 5.7601
 IR Inten    --      6.1949                34.9276                 8.0369

                    100                    101                    102
                      A                      A                      A
 Frequencies --   3047.0112              3048.8528              3048.8589
 Red. masses --      1.0530                 1.0425                 1.0427
 Frc consts  --      5.7599                 5.7096                 5.7106
 IR Inten    --      5.7898                 2.5708                69.8211

                    103                    104                    105
                      A                      A                      A
 Frequencies --   3052.5574              3052.6092              3085.5278
 Red. masses --      1.0410                 1.0410                 1.0859
 Frc consts  --      5.7152                 5.7153                 6.0913
 IR Inten    --      7.4080                13.9220                12.2351

                    106                    107                    108
                      A                      A                      A
 Frequencies --   3085.7755              3093.6393              3093.9976
 Red. masses --      1.0859                 1.0617                 1.0618
 Frc consts  --      6.0923                 5.9867                 5.9890
 IR Inten    --     14.5334                39.4607                16.5121

                    109                    110                    111
                      A                      A                      A
 Frequencies --   3116.9558              3117.0327              3141.8303
 Red. masses --      1.1044                 1.1045                 1.1036
 Frc consts  --      6.3220                 6.3224                 6.4182
 IR Inten    --     13.1498                23.7238                15.5202

                    112                    113                    114
                      A                      A                      A
 Frequencies --   3141.8570              3143.5814              3143.6425
 Red. masses --      1.1036                 1.1023                 1.1023
 Frc consts  --      6.4183                 6.4181                 6.4184
 IR Inten    --     10.8342                17.4270                43.4779

                    115                    116                    117
                      A                      A                      A
 Frequencies --   3148.0077              3148.0515              3150.2066
 Red. masses --      1.1044                 1.1044                 1.1035
 Frc consts  --      6.4483                 6.4485                 6.4523
 IR Inten    --      6.3533                 7.1829                84.9546

                    118                    119                    120
                      A                      A                      A
 Frequencies --   3150.2931              3168.6843              3168.7880
 Red. masses --      1.1035                 1.1112                 1.1111
 Frc consts  --      6.4525                 6.5734                 6.5736
 IR Inten    --      6.9696                 4.3665                26.0428

 - Thermochemistry -
 -------------------
 Temperature   298.150 Kelvin.  Pressure   1.00000 Atm.
 Atom     1 has atomic number  6 and mass  12.00000

 Molecular mass:   252.18378 amu.
 Principal axes and moments of inertia in atomic units:
                           1         2         3
     Eigenvalues --  1837.71322********************
           X            1.00000   0.00000  -0.00143
           Y           -0.00000   1.00000  -0.00010
           Z            0.00143   0.00010   1.00000
 This molecule is an asymmetric top.
 Rotational symmetry number  1.
 Warning -- assumption of classical behavior for rotation
           may cause significant error
 Rotational temperatures (Kelvin)      0.04713     0.00663     0.00626
 Rotational constants (GHZ):           0.98206     0.13821     0.13040
    2 imaginary frequencies ignored.
 Zero-point vibrational energy     975625.0 (Joules/Mol)
                                  233.17998 (Kcal/Mol)
 Warning -- explicit consideration of  26 degrees of freedom as
           vibrations may cause significant error
 Vibrational temperatures:     30.26    48.53    62.12    87.23   111.37
          (Kelvin)            165.27   181.35   224.24   241.38   293.72
                              336.01   336.57   356.34   364.17   408.14
                              408.77   472.63   499.30   569.56   580.92
                              593.10   606.44   666.46   693.69   731.42
                              758.03   908.81  1062.37  1065.80  1098.70
                             1217.58  1217.94  1235.97  1238.93  1290.88
                             1294.05  1325.84  1329.22  1329.75  1385.26
                             1396.03  1396.46  1400.13  1411.91  1416.07
                             1461.09  1467.64  1515.81  1540.20  1545.47
                             1621.30  1624.01  1673.29  1673.53  1690.18
                             1691.66  1713.78  1713.96  1750.43  1751.26
                             1805.72  1809.07  1813.73  1819.93  1820.11
                             1874.05  1888.64  1912.13  1935.10  1943.01
                             1962.68  1970.27  1999.85  2000.89  2012.62
                             2013.73  2017.16  2019.58  2026.33  2083.47
                             2084.44  2098.43  2098.50  2107.50  2107.85
                             2122.32  2122.35  2126.45  2133.10  2133.75
                             2137.23  2287.27  2501.46  2525.60  4339.99
                             4340.03  4383.91  4383.97  4386.62  4386.63
                             4391.95  4392.02  4439.39  4439.74  4451.06
                             4451.57  4484.60  4484.71  4520.39  4520.43
                             4522.91  4523.00  4529.28  4529.34  4532.44
                             4532.57  4559.03  4559.18

 Zero-point correction=                           0.371596 (Hartree/Particle)
 Thermal correction to Energy=                    0.389359
 Thermal correction to Enthalpy=                  0.390303
 Thermal correction to Gibbs Free Energy=         0.324134
 Sum of electronic and zero-point Energies=           -806.010433
 Sum of electronic and thermal Energies=              -805.992670
 Sum of electronic and thermal Enthalpies=            -805.991726
 Sum of electronic and thermal Free Energies=         -806.057895

                     E (Thermal)             CV                S
                      KCal/Mol        Cal/Mol-Kelvin    Cal/Mol-Kelvin
 Total                  244.326             67.693            139.264
 Electronic               0.000              0.000              0.000
 Translational            0.889              2.981             42.475
 Rotational               0.889              2.981             34.162
 Vibrational            242.549             61.731             62.627
 Vibration     1          0.593              1.985              6.534
 Vibration     2          0.594              1.983              5.597
 Vibration     3          0.595              1.980              5.108
 Vibration     4          0.597              1.973              4.437
 Vibration     5          0.599              1.964              3.956
 Vibration     6          0.608              1.937              3.185
 Vibration     7          0.611              1.927              3.006
 Vibration     8          0.620              1.896              2.599
 Vibration     9          0.624              1.882              2.460
 Vibration    10          0.640              1.834              2.095
 Vibration    11          0.654              1.790              1.852
 Vibration    12          0.654              1.789              1.849
 Vibration    13          0.661              1.767              1.747
 Vibration    14          0.664              1.758              1.709
 Vibration    15          0.682              1.704              1.511
 Vibration    16          0.683              1.703              1.509
 Vibration    17          0.712              1.619              1.267
 Vibration    18          0.725              1.581              1.180
 Vibration    19          0.763              1.479              0.978
 Vibration    20          0.769              1.462              0.949
 Vibration    21          0.776              1.444              0.919
 Vibration    22          0.784              1.424              0.887
 Vibration    23          0.821              1.332              0.757
 Vibration    24          0.838              1.290              0.704
 Vibration    25          0.864              1.231              0.638
 Vibration    26          0.882              1.191              0.594

 Normal termination of Gaussian 16 at Mon Jan 23 09:04:20 2023.
