 Gaussian 16, Revision A.03,
 Gaussian 16:  ES64L-G16RevA.03 25-Dec-2016

 ----------------------------------------------------------------------
 #p pop=(regular,nbo,savenbos) freq=noraman def2svp empiricaldispersion
 =gd3bj output=wfx pbe1pbe
 ----------------------------------------------------------------------

 ------
 05_sub
 ------
 Symbolic Z-matrix:
 Charge =  0 Multiplicity = 1

                         Standard orientation:
 ---------------------------------------------------------------------
 Center     Atomic      Atomic             Coordinates (Angstroms)
 Number     Number       Type             X           Y           Z
 ---------------------------------------------------------------------
      1          6           0       -2.672343   -1.814301    0.573471
      2          6           0       -2.742759   -0.266725    0.496712
      3          1           0       -2.902776    0.187382    1.489137
      4          7           0       -1.385967    0.083539    0.098177
      5          6           0       -0.727302   -0.998020   -0.064013
      6          8           0       -1.327478   -2.149660    0.144496
      7          6           0        0.701874   -0.873538   -0.392788
      8          7           0        1.178096    0.307609   -0.447708
      9          6           0        2.619874    0.203934   -0.606397
     10          1           0        2.907028    0.772764   -1.502729
     11          6           0        2.816738   -1.320142   -0.813697
     12          8           0        1.509869   -1.900145   -0.561539
     13          6           0        3.335201    0.818073    0.608739
     14          6           0        4.855703    0.761783    0.452717
     15          6           0        5.402983    1.450969   -0.788481
     16          6           0        2.873400    0.202998    1.923728
     17          6           0       -3.791466    0.251861   -0.496549
     18          6           0       -3.626012    1.740520   -0.824995
     19          6           0       -3.847230    2.711391    0.325555
     20          6           0       -5.191100   -0.083735    0.007066
     21          1           0       -3.369818   -2.313016   -0.114295
     22          1           0       -2.804963   -2.220471    1.585137
     23          1           0        3.524102   -1.777479   -0.108764
     24          1           0        3.104487   -1.588859   -1.839725
     25          1           0        3.022972    1.877570    0.602578
     26          1           0        5.200093   -0.289206    0.486498
     27          1           0        5.290710    1.234043    1.348762
     28          1           0        5.128545    0.928435   -1.718839
     29          1           0        6.501784    1.497533   -0.762232
     30          1           0        5.024639    2.482418   -0.866342
     31          1           0        3.046931   -0.886259    1.964158
     32          1           0        1.806411    0.396199    2.114449
     33          1           0        3.427604    0.648648    2.762657
     34          1           0       -3.622710   -0.302508   -1.439593
     35          1           0       -4.326727    1.971157   -1.645884
     36          1           0       -2.618838    1.897450   -1.246733
     37          1           0       -4.864385    2.635872    0.740059
     38          1           0       -3.714546    3.746057   -0.023501
     39          1           0       -3.125265    2.557261    1.142873
     40          1           0       -5.390269    0.391024    0.979916
     41          1           0       -5.340891   -1.168020    0.130895
     42          1           0       -5.953515    0.272016   -0.701834
 ---------------------------------------------------------------------

 SCF Done:  E(RPBE1PBE) =  -806.385648553     A.U. after   14 cycles

 The electronic state is 1-A.
 Alpha  occ. eigenvalues --  -19.25436 -19.25409 -14.36268 -14.36241 -10.32246
 Alpha  occ. eigenvalues --  -10.32122 -10.29360 -10.29299 -10.26352 -10.26301
 Alpha  occ. eigenvalues --  -10.23656 -10.23638 -10.23351 -10.22838 -10.22701
 Alpha  occ. eigenvalues --  -10.22070 -10.21867 -10.21509  -1.13457  -1.12047
 Alpha  occ. eigenvalues --   -0.93670  -0.91317  -0.84308  -0.82579  -0.79210
 Alpha  occ. eigenvalues --   -0.76108  -0.74146  -0.73082  -0.67773  -0.66419
 Alpha  occ. eigenvalues --   -0.65043  -0.63640  -0.63157  -0.57864  -0.56350
 Alpha  occ. eigenvalues --   -0.55950  -0.53475  -0.52644  -0.50866  -0.48833
 Alpha  occ. eigenvalues --   -0.48369  -0.47276  -0.46296  -0.45567  -0.44921
 Alpha  occ. eigenvalues --   -0.43960  -0.43677  -0.42557  -0.41761  -0.41249
 Alpha  occ. eigenvalues --   -0.40601  -0.39101  -0.38952  -0.38820  -0.38070
 Alpha  occ. eigenvalues --   -0.37736  -0.37077  -0.36576  -0.36136  -0.34714
 Alpha  occ. eigenvalues --   -0.33773  -0.33423  -0.33002  -0.32885  -0.32601
 Alpha  occ. eigenvalues --   -0.28962  -0.27120  -0.25951  -0.23943
 Alpha virt. eigenvalues --   -0.02739   0.05922   0.06392   0.07912   0.08290
 Alpha virt. eigenvalues --    0.08744   0.08854   0.09194   0.09924   0.11256
 Alpha virt. eigenvalues --    0.11764   0.12413   0.13141   0.13351   0.14343

 Mulliken charges:
               1
     1  C    0.251286
     2  C   -0.080775
     3  H    0.045195
     4  N   -0.196313
     5  C    0.134925
     6  O   -0.321818
     7  C    0.144034
     8  N   -0.196878
     9  C   -0.075256
    10  H    0.044829
    11  C    0.230415
    12  O   -0.322983
    13  C   -0.125253
    14  C   -0.062976
    15  C   -0.071613
    16  C   -0.036485
    17  C   -0.134256
    18  C   -0.032636
    19  C   -0.092660
    20  C   -0.027832
    21  H    0.048015
    22  H    0.051971
    23  H    0.051115
    24  H    0.053352
    25  H    0.046602
    26  H    0.025688
    27  H    0.037569
    28  H    0.043044
    29  H    0.044315
    30  H    0.044583
    31  H    0.030196
    32  H    0.064147
    33  H    0.036452
    34  H    0.020639
    35  H    0.026932
    36  H    0.058368
    37  H    0.033869
    38  H    0.042056
    39  H    0.052962
    40  H    0.041119
    41  H    0.030572
    42  H    0.043487
 Sum of Mulliken charges =  -0.00000

 Dipole moment (field-independent basis, Debye):
    X=              0.4273    Y=             -0.8347    Z=              0.3173  Tot=              0.9900
 Quadrupole moment (field-independent basis, Debye-Ang):
   XX=            -92.4843   YY=           -115.0868   ZZ=           -107.8380
   XY=              2.8328   XZ=             -2.7424   YZ=             -0.2058

  Exact polarizability: 213.452   4.023 156.586  -6.239  -0.337 135.633
 Approx polarizability: 240.086   0.373 239.691  -8.049   1.807 195.374

 Summary of Natural Population Analysis:

                                       Natural Population
                Natural  -----------------------------------------------
    Atom  No    Charge         Core      Valence    Rydberg      Total
 -----------------------------------------------------------------------
      C    1   -0.08209      1.99905     4.06453    0.01851     6.08209
      C    2   -0.09193      1.99899     4.06936    0.02357     6.09193
      H    3    0.23859      0.00000     0.75758    0.00383     0.76141
      N    4   -0.51260      1.99933     5.49683    0.01643     7.51260
      C    5    0.54262      1.99897     3.41651    0.04189     5.45738
      O    6   -0.54160      1.99965     6.53083    0.01112     8.54160
      C    7    0.53885      1.99896     3.42060    0.04158     5.46115
      N    8   -0.50380      1.99934     5.48783    0.01663     7.50380
      C    9   -0.09177      1.99900     4.06830    0.02447     6.09177
      H   10    0.24393      0.00000     0.75283    0.00324     0.75607
      C   11   -0.09115      1.99905     4.07295    0.01915     6.09115
      O   12   -0.54230      1.99966     6.53150    0.01114     8.54230
      C   13   -0.26334      1.99898     4.24682    0.01754     6.26334
      C   14   -0.44752      1.99912     4.43459    0.01381     6.44752
      C   15   -0.65332      1.99926     4.64547    0.00859     6.65332
      C   16   -0.66173      1.99923     4.65106    0.01144     6.66173
      C   17   -0.26138      1.99898     4.24492    0.01748     6.26138
      C   18   -0.44732      1.99912     4.43284    0.01536     6.44732
      C   19   -0.65645      1.99926     4.64846    0.00874     6.65645
      C   20   -0.65669      1.99923     4.64651    0.01096     6.65669
      H   21    0.20992      0.00000     0.78706    0.00302     0.79008
      H   22    0.21541      0.00000     0.78178    0.00281     0.78459
      H   23    0.21105      0.00000     0.78590    0.00305     0.78895
      H   24    0.21508      0.00000     0.78202    0.00290     0.78492
      H   25    0.24828      0.00000     0.74656    0.00516     0.75172
      H   26    0.21653      0.00000     0.77969    0.00378     0.78347
      H   27    0.23185      0.00000     0.76458    0.00357     0.76815
      H   28    0.21447      0.00000     0.78303    0.00250     0.78553
      H   29    0.22974      0.00000     0.76782    0.00244     0.77026
      H   30    0.22145      0.00000     0.77575    0.00281     0.77855
      H   31    0.21465      0.00000     0.78270    0.00265     0.78535
      H   32    0.24249      0.00000     0.75433    0.00318     0.75751
      H   33    0.22803      0.00000     0.76951    0.00246     0.77197
      H   34    0.23560      0.00000     0.75974    0.00466     0.76440
      H   35    0.22174      0.00000     0.77477    0.00349     0.77826
      H   36    0.25058      0.00000     0.74562    0.00380     0.74942
      H   37    0.21166      0.00000     0.78576    0.00257     0.78834
      H   38    0.22913      0.00000     0.76846    0.00241     0.77087
      H   39    0.22160      0.00000     0.77557    0.00283     0.77840
      H   40    0.22057      0.00000     0.77679    0.00264     0.77943
      H   41    0.22031      0.00000     0.77723    0.00245     0.77969
      H   42    0.23083      0.00000     0.76665    0.00252     0.76917
 =======================================================================
   * Total *   -0.00000     35.98518   101.61167    0.40315   138.00000

 ******    2 imaginary frequencies (negative Signs) ******

                      1                      2                      3
                      A                      A                      A
 Frequencies --    -81.9840               -58.2690                30.2867
 Red. masses --      6.2832                 5.0234                 3.2405
 Frc consts  --      0.0249                 0.0100                 0.0018
 IR Inten    --      0.1536                 0.7522                 0.0733

                      4                      5                      6
                      A                      A                      A
 Frequencies --     40.9204                46.9935                81.0862
 Red. masses --      3.0777                 2.9213                 2.8122
 Frc consts  --      0.0030                 0.0038                 0.0109
 IR Inten    --      0.0552                 0.0720                 0.0638

                      7                      8                      9
                      A                      A                      A
 Frequencies --     94.9007               108.3073               119.0951
 Red. masses --      3.0054                 3.0027                 2.3109
 Frc consts  --      0.0159                 0.0208                 0.0193
 IR Inten    --      0.9532                 0.4652                 1.4193

                     10                     11                     12
                      A                      A                      A
 Frequencies --    183.6590               186.3320               203.2758
 Red. masses --      2.0502                 2.0915                 2.6045
 Frc consts  --      0.0407                 0.0428                 0.0634
 IR Inten    --      3.0146                 1.0208                 0.8202

                     13                     14                     15
                      A                      A                      A
 Frequencies --    216.0782               226.5785               237.3415
 Red. masses --      1.1831                 1.1230                 1.7536
 Frc consts  --      0.0325                 0.0340                 0.0582
 IR Inten    --      0.0287                 0.4679                 1.1516

                     16                     17                     18
                      A                      A                      A
 Frequencies --    251.0926               269.3903               277.9023
 Red. masses --      1.6267                 1.8974                 1.8662
 Frc consts  --      0.0604                 0.0811                 0.0849
 IR Inten    --      0.4657                 0.0987                 0.7793

                     19                     20                     21
                      A                      A                      A
 Frequencies --    291.1274               310.1008               353.4526
 Red. masses --      2.5510                 3.1475                 3.0063
 Frc consts  --      0.1274                 0.1783                 0.2213
 IR Inten    --      0.2782                 0.8176                 0.4229

                     22                     23                     24
                      A                      A                      A
 Frequencies --    385.4288               400.3545               436.3107
 Red. masses --      3.4000                 2.5947                 2.8727
 Frc consts  --      0.2976                 0.2450                 0.3222
 IR Inten    --      1.2296                 0.8708                 0.9603

                     25                     26                     27
                      A                      A                      A
 Frequencies --    507.7752               534.3781               538.6061
 Red. masses --      4.8207                 3.1588                 2.6094
 Frc consts  --      0.7323                 0.5315                 0.4460
 IR Inten    --      4.9189                 0.2013                 1.7601

                     28                     29                     30
                      A                      A                      A
 Frequencies --    548.8732               622.6521               730.2350
 Red. masses --      3.1838                 5.9024                 2.8430
 Frc consts  --      0.5651                 1.3482                 0.8932
 IR Inten    --      0.5528                18.7422                 1.6933

                     31                     32                     33
                      A                      A                      A
 Frequencies --    758.3584               772.8998               788.4669
 Red. masses --      1.9845                 2.4908                 1.8444
 Frc consts  --      0.6724                 0.8767                 0.6756
 IR Inten    --      9.8918                 2.4875                12.6980

                     34                     35                     36
                      A                      A                      A
 Frequencies --    798.2336               811.3919               821.9214
 Red. masses --      2.4104                 2.6462                 2.1441
 Frc consts  --      0.9049                 1.0265                 0.8534
 IR Inten    --     15.6423                 2.6216                 1.8553

                     37                     38                     39
                      A                      A                      A
 Frequencies --    879.3287               889.3857               915.5242
 Red. masses --      1.9106                 2.0536                 6.2873
 Frc consts  --      0.8704                 0.9571                 3.1049
 IR Inten    --      1.5157                 1.5506                17.9148

                     40                     41                     42
                      A                      A                      A
 Frequencies --    951.4369               959.4236               973.3014
 Red. masses --      1.5121                 1.8820                 1.5139
 Frc consts  --      0.8065                 1.0207                 0.8450
 IR Inten    --      2.2281                 1.8893                 1.5106

                     43                     44                     45
                      A                      A                      A
 Frequencies --    985.5602               990.9460              1001.7092
 Red. masses --      3.2564                 2.1126                 2.4828
 Frc consts  --      1.8636                 1.2223                 1.4678
 IR Inten    --     82.6415                15.5841                 8.9762

                     46                     47                     48
                      A                      A                      A
 Frequencies --   1005.7404              1008.9399              1021.4882
 Red. masses --      1.6794                 1.9467                 1.7027
 Frc consts  --      1.0009                 1.1676                 1.0468
 IR Inten    --     10.9194                 4.9916                 5.7196

                     49                     50                     51
                      A                      A                      A
 Frequencies --   1025.9778              1047.8495              1060.4438
 Red. masses --      1.5915                 3.2416                 2.5682
 Frc consts  --      0.9871                 2.0970                 1.7016
 IR Inten    --      7.7769                 5.1899                 5.6816

                     52                     53                     54
                      A                      A                      A
 Frequencies --   1076.6383              1100.2201              1111.6584
 Red. masses --      2.8622                 3.4555                 3.0622
 Frc consts  --      1.9547                 2.4645                 2.2296
 IR Inten    --      4.3647                12.5141                19.1524

                     55                     56                     57
                      A                      A                      A
 Frequencies --   1136.3795              1143.7655              1161.7975
 Red. masses --      1.8899                 2.1865                 1.8756
 Frc consts  --      1.4380                 1.6853                 1.4916
 IR Inten    --      4.5372                 3.0331                 1.1031

                     58                     59                     60
                      A                      A                      A
 Frequencies --   1169.0544              1193.4577              1195.1004
 Red. masses --      1.8934                 1.9048                 1.5583
 Frc consts  --      1.5246                 1.5985                 1.3113
 IR Inten    --      1.9538                 1.8293                 1.1232

                     61                     62                     63
                      A                      A                      A
 Frequencies --   1217.8066              1226.8288              1257.8398
 Red. masses --      1.1340                 1.3195                 1.3494
 Frc consts  --      0.9909                 1.1701                 1.2579
 IR Inten    --      2.5714                 1.0386                18.0532

                     64                     65                     66
                      A                      A                      A
 Frequencies --   1262.3343              1275.7948              1283.9850
 Red. masses --      1.7302                 1.3213                 1.3660
 Frc consts  --      1.6245                 1.2671                 1.3268
 IR Inten    --     75.3488                10.8645                30.8372

                     67                     68                     69
                      A                      A                      A
 Frequencies --   1287.8339              1301.6054              1306.9946
 Red. masses --      1.3166                 1.1891                 1.2917
 Frc consts  --      1.2866                 1.1869                 1.3001
 IR Inten    --     17.5133                 0.9639                 2.7993

                     70                     71                     72
                      A                      A                      A
 Frequencies --   1332.4039              1345.2514              1353.5290
 Red. masses --      1.4087                 1.5409                 1.6929
 Frc consts  --      1.4735                 1.6430                 1.8273
 IR Inten    --     22.3827                 6.5047                 6.0264

                     73                     74                     75
                      A                      A                      A
 Frequencies --   1362.7274              1364.2425              1378.2103
 Red. masses --      1.4296                 1.3550                 1.3438
 Frc consts  --      1.5642                 1.4858                 1.5039
 IR Inten    --      5.6974                 0.0960                 2.3095

                     76                     77                     78
                      A                      A                      A
 Frequencies --   1389.6730              1395.8660              1398.3948
 Red. masses --      1.4434                 1.4801                 1.3299
 Frc consts  --      1.6423                 1.6992                 1.5323
 IR Inten    --      0.7268                23.4177                10.0512

                     79                     80                     81
                      A                      A                      A
 Frequencies --   1406.0143              1408.3475              1411.4427
 Red. masses --      2.2769                 1.4463                 1.6279
 Frc consts  --      2.6520                 1.6901                 1.9107
 IR Inten    --    118.1456                13.0681                10.0214

                     82                     83                     84
                      A                      A                      A
 Frequencies --   1455.5873              1457.4007              1466.3116
 Red. masses --      1.0921                 1.0663                 1.0819
 Frc consts  --      1.3633                 1.3344                 1.3705
 IR Inten    --      6.4549                 0.1177                 6.5804

                     85                     86                     87
                      A                      A                      A
 Frequencies --   1467.1013              1470.3578              1470.8107
 Red. masses --      1.0570                 1.0525                 1.0518
 Frc consts  --      1.3405                 1.3407                 1.3406
 IR Inten    --      8.9003                 5.7126                11.3785

                     88                     89                     90
                      A                      A                      A
 Frequencies --   1475.1634              1476.3634              1478.8880
 Red. masses --      1.0842                 1.0628                 1.0700
 Frc consts  --      1.3900                 1.3648                 1.3788
 IR Inten    --      7.4315                 3.3702                 0.7329

                     91                     92                     93
                      A                      A                      A
 Frequencies --   1479.2500              1481.1949              1487.9719
 Red. masses --      1.0683                 1.0934                 1.1130
 Frc consts  --      1.3773                 1.4134                 1.4519
 IR Inten    --      8.5248                 4.7051                15.5686

                     94                     95                     96
                      A                      A                      A
 Frequencies --   1586.3738              1736.1266              1751.1975
 Red. masses --      7.1216                11.4816                10.9602
 Frc consts  --     10.5594                20.3900                19.8033
 IR Inten    --    232.6068               110.1305                21.4646

                     97                     98                     99
                      A                      A                      A
 Frequencies --   3029.0201              3037.5520              3047.0136
 Red. masses --      1.0837                 1.0674                 1.0421
 Frc consts  --      5.8582                 5.8026                 5.7003
 IR Inten    --     11.9892                16.2453                16.1972

                    100                    101                    102
                      A                      A                      A
 Frequencies --   3053.8940              3054.0267              3057.7164
 Red. masses --      1.0383                 1.0382                 1.0407
 Frc consts  --      5.7054                 5.7052                 5.7329
 IR Inten    --     15.3961                15.2927                22.7539

                    103                    104                    105
                      A                      A                      A
 Frequencies --   3059.6267              3061.9243              3072.0822
 Red. masses --      1.0637                 1.0824                 1.0862
 Frc consts  --      5.8666                 5.9789                 6.0399
 IR Inten    --     25.4533                18.4322                30.0435

                    106                    107                    108
                      A                      A                      A
 Frequencies --   3095.6839              3098.5740              3099.2392
 Red. masses --      1.0955                 1.0602                 1.0682
 Frc consts  --      6.1856                 5.9975                 6.0452
 IR Inten    --     10.4534                28.2359                27.0922

                    109                    110                    111
                      A                      A                      A
 Frequencies --   3106.4838              3108.0700              3138.7436
 Red. masses --      1.1013                 1.0820                 1.1007
 Frc consts  --      6.2615                 6.1583                 6.3887
 IR Inten    --      8.7968                27.8541                15.2959

                    112                    113                    114
                      A                      A                      A
 Frequencies --   3142.4135              3142.8083              3150.7765
 Red. masses --      1.1027                 1.1026                 1.1028
 Frc consts  --      6.4153                 6.4168                 6.4506
 IR Inten    --     22.3105                37.9930                18.1188

                    115                    116                    117
                      A                      A                      A
 Frequencies --   3151.1084              3151.9344              3152.9965
 Red. masses --      1.1036                 1.1035                 1.1029
 Frc consts  --      6.4561                 6.4592                 6.4602
 IR Inten    --     35.2047                13.8091                20.8131

                    118                    119                    120
                      A                      A                      A
 Frequencies --   3156.0339              3167.8647              3168.8025
 Red. masses --      1.1034                 1.1124                 1.1131
 Frc consts  --      6.4756                 6.5773                 6.5855
 IR Inten    --     13.3076                13.4393                17.9576

 - Thermochemistry -
 -------------------
 Temperature   298.150 Kelvin.  Pressure   1.00000 Atm.
 Atom     1 has atomic number  6 and mass  12.00000

 Molecular mass:   252.18378 amu.
 Principal axes and moments of inertia in atomic units:
                           1         2         3
     Eigenvalues --  2123.849599785.37914**********
           X            1.00000  -0.00101   0.00021
           Y            0.00101   0.99997  -0.00820
           Z           -0.00020   0.00820   0.99997
 This molecule is an asymmetric top.
 Rotational symmetry number  1.
 Warning -- assumption of classical behavior for rotation
           may cause significant error
 Rotational temperatures (Kelvin)      0.04078     0.00885     0.00796
 Rotational constants (GHZ):           0.84975     0.18443     0.16583
    2 imaginary frequencies ignored.
 Zero-point vibrational energy     976156.1 (Joules/Mol)
                                  233.30690 (Kcal/Mol)
 Warning -- explicit consideration of  26 degrees of freedom as
           vibrations may cause significant error
 Vibrational temperatures:     43.58    58.88    67.61   116.66   136.54
          (Kelvin)            155.83   171.35   264.24   268.09   292.47
                              310.89   326.00   341.48   361.27   387.59
                              399.84   418.87   446.17   508.54   554.55
                              576.02   627.75   730.58   768.85   774.93
                              789.71   895.86  1050.65  1091.11  1112.03
                             1134.43  1148.48  1167.41  1182.56  1265.16
                             1279.63  1317.24  1368.91  1380.40  1400.36
                             1418.00  1425.75  1441.24  1447.04  1451.64
                             1469.69  1476.15  1507.62  1525.74  1549.04
                             1582.97  1599.43  1635.00  1645.62  1671.57
                             1682.01  1717.12  1719.48  1752.15  1765.13
                             1809.75  1816.22  1835.58  1847.37  1852.91
                             1872.72  1880.47  1917.03  1935.52  1947.43
                             1960.66  1962.84  1982.94  1999.43  2008.34
                             2011.98  2022.94  2026.30  2030.75  2094.27
                             2096.87  2109.70  2110.83  2115.52  2116.17
                             2122.43  2124.16  2127.79  2128.31  2131.11
                             2140.86  2282.44  2497.90  2519.58  4358.08
                             4370.36  4383.97  4393.87  4394.06  4399.37
                             4402.12  4405.43  4420.04  4454.00  4458.16
                             4459.11  4469.54  4471.82  4515.95  4521.23
                             4521.80  4533.26  4533.74  4534.93  4536.46
                             4540.83  4557.85  4559.20

 Zero-point correction=                           0.371798 (Hartree/Particle)
 Thermal correction to Energy=                    0.389545
 Thermal correction to Enthalpy=                  0.390489
 Thermal correction to Gibbs Free Energy=         0.325337
 Sum of electronic and zero-point Energies=           -806.013850
 Sum of electronic and thermal Energies=              -805.996104
 Sum of electronic and thermal Enthalpies=            -805.995160
 Sum of electronic and thermal Free Energies=         -806.060311

                     E (Thermal)             CV                S
                      KCal/Mol        Cal/Mol-Kelvin    Cal/Mol-Kelvin
 Total                  244.443             67.802            137.123
 Electronic               0.000              0.000              0.000
 Translational            0.889              2.981             42.475
 Rotational               0.889              2.981             33.780
 Vibrational            242.665             61.841             60.867
 Vibration     1          0.594              1.984              5.811
 Vibration     2          0.594              1.981              5.214
 Vibration     3          0.595              1.979              4.940
 Vibration     4          0.600              1.962              3.864
 Vibration     5          0.603              1.953              3.556
 Vibration     6          0.606              1.943              3.299
 Vibration     7          0.609              1.933              3.115
 Vibration     8          0.631              1.862              2.291
 Vibration     9          0.632              1.859              2.264
 Vibration    10          0.639              1.835              2.103
 Vibration    11          0.645              1.817              1.992
 Vibration    12          0.650              1.801              1.906
 Vibration    13          0.656              1.784              1.823
 Vibration    14          0.663              1.761              1.723
 Vibration    15          0.674              1.729              1.600
 Vibration    16          0.679              1.714              1.547
 Vibration    17          0.687              1.690              1.467
 Vibration    18          0.699              1.654              1.362
 Vibration    19          0.730              1.568              1.151
 Vibration    20          0.754              1.501              1.018
 Vibration    21          0.766              1.469              0.961
 Vibration    22          0.797              1.391              0.838
 Vibration    23          0.863              1.233              0.639
 Vibration    24          0.889              1.174              0.578
 Vibration    25          0.894              1.165              0.568
 Vibration    26          0.904              1.142              0.547

 Normal termination of Gaussian 16 at Mon Jan 23 09:06:31 2023.
