 Gaussian 16, Revision A.03,
 Gaussian 16:  ES64L-G16RevA.03 25-Dec-2016

 ----------------------------------------------------------------------
 #p pop=(regular,nbo,savenbos) freq=noraman def2svp empiricaldispersion
 =gd3bj output=wfx pbe1pbe
 ----------------------------------------------------------------------

 ------
 07_sub
 ------
 Symbolic Z-matrix:
 Charge =  0 Multiplicity = 1

                         Standard orientation:
 ---------------------------------------------------------------------
 Center     Atomic      Atomic             Coordinates (Angstroms)
 Number     Number       Type             X           Y           Z
 ---------------------------------------------------------------------
      1          6           0       -2.445327   -1.338784    1.119004
      2          6           0       -2.520940    0.114857    0.584422
      3          1           0       -2.662883    0.858007    1.385596
      4          7           0       -1.173171    0.316361    0.061567
      5          6           0       -0.535876   -0.782239    0.169920
      6          8           0       -1.136923   -1.821517    0.710031
      7          6           0        0.864852   -0.779252   -0.284338
      8          7           0        1.385975    0.358460   -0.534665
      9          6           0        2.762776    0.135150   -0.958580
     10          1           0        2.872791    0.572256   -1.964412
     11          6           0        2.854567   -1.414938   -0.974681
     12          8           0        1.576921   -1.870639   -0.459503
     13          6           0        3.777282    0.770641   -0.030125
     14          6           0        3.471128    1.008755    1.421722
     15          6           0        3.621063    2.166157    0.478972
     16          6           0       -3.562992    0.327671   -0.481004
     17          6           0       -3.904376    1.724706   -0.903208
     18          6           0       -4.890252    0.927984   -0.108022
     19          1           0       -3.200799   -2.000085    0.673769
     20          1           0       -2.493276   -1.413025    2.214030
     21          1           0        3.638095   -1.802551   -0.309515
     22          1           0        2.975620   -1.844230   -1.978846
     23          1           0        4.797818    0.451697   -0.271446
     24          1           0        4.258109    0.815152    2.154890
     25          1           0        2.460560    0.785119    1.776161
     26          1           0        4.523828    2.777763    0.549414
     27          1           0        2.728286    2.718821    0.171495
     28          1           0       -3.563215   -0.444028   -1.260129
     29          1           0       -4.107878    1.890935   -1.963616
     30          1           0       -3.359898    2.534939   -0.407057
     31          1           0       -5.783230    0.542438   -0.606072
     32          1           0       -5.044972    1.206042    0.938710
 ---------------------------------------------------------------------

 SCF Done:  E(RPBE1PBE) =  -725.434819437     A.U. after   14 cycles

 The electronic state is 1-A.
 Alpha  occ. eigenvalues --  -19.25670 -19.25567 -14.36571 -14.36328 -10.32536
 Alpha  occ. eigenvalues --  -10.32291 -10.29566 -10.29383 -10.26979 -10.26827
 Alpha  occ. eigenvalues --  -10.24268 -10.24007 -10.23897 -10.23454 -10.22995
 Alpha  occ. eigenvalues --  -10.22761  -1.13649  -1.12259  -0.93977  -0.91867
 Alpha  occ. eigenvalues --   -0.88327  -0.87128  -0.81283  -0.76880  -0.68413
 Alpha  occ. eigenvalues --   -0.66602  -0.65547  -0.61121  -0.60440  -0.59092
 Alpha  occ. eigenvalues --   -0.57913  -0.56389  -0.54644  -0.52704  -0.51638
 Alpha  occ. eigenvalues --   -0.50751  -0.49477  -0.48614  -0.47493  -0.46637
 Alpha  occ. eigenvalues --   -0.45197  -0.43466  -0.41788  -0.41219  -0.39111
 Alpha  occ. eigenvalues --   -0.38675  -0.37915  -0.37563  -0.37212  -0.37007
 Alpha  occ. eigenvalues --   -0.36278  -0.31330  -0.30889  -0.30436  -0.29767
 Alpha  occ. eigenvalues --   -0.28868  -0.27603  -0.25984  -0.24504
 Alpha virt. eigenvalues --   -0.02828   0.06908   0.07110   0.07338   0.08410
 Alpha virt. eigenvalues --    0.09164   0.10115   0.10396   0.10869   0.11517
 Alpha virt. eigenvalues --    0.12695   0.13420   0.13692   0.14389   0.14905

 Mulliken charges:
               1
     1  C    0.256638
     2  C   -0.034240
     3  H    0.029368
     4  N   -0.200365
     5  C    0.137647
     6  O   -0.323006
     7  C    0.146757
     8  N   -0.220800
     9  C    0.001323
    10  H    0.051180
    11  C    0.243444
    12  O   -0.317668
    13  C   -0.171494
    14  C   -0.082348
    15  C   -0.056833
    16  C   -0.130923
    17  C   -0.045225
    18  C   -0.074266
    19  H    0.048518
    20  H    0.053783
    21  H    0.047279
    22  H    0.052826
    23  H    0.047831
    24  H    0.055126
    25  H    0.072968
    26  H    0.053325
    27  H    0.074704
    28  H    0.040921
    29  H    0.062093
    30  H    0.067898
    31  H    0.059601
    32  H    0.053940
 Sum of Mulliken charges =  -0.00000

 Dipole moment (field-independent basis, Debye):
    X=             -0.1522    Y=             -1.1106    Z=              0.1396  Tot=              1.1297
 Quadrupole moment (field-independent basis, Debye-Ang):
   XX=            -76.1181   YY=            -99.6180   ZZ=            -89.7041
   XY=              0.0761   XZ=             -4.4285   YZ=              1.8141

  Exact polarizability: 173.719  -1.238 129.812  -6.219  -1.611 112.869
 Approx polarizability: 198.929  -3.080 201.998 -10.933  -6.649 161.630

 Summary of Natural Population Analysis:

                                       Natural Population
                Natural  -----------------------------------------------
    Atom  No    Charge         Core      Valence    Rydberg      Total
 -----------------------------------------------------------------------
      C    1   -0.07905      1.99906     4.06146    0.01853     6.07905
      C    2   -0.10107      1.99895     4.07729    0.02483     6.10107
      H    3    0.23962      0.00000     0.75672    0.00366     0.76038
      N    4   -0.49905      1.99934     5.48295    0.01676     7.49905
      C    5    0.53666      1.99897     3.42245    0.04192     5.46334
      O    6   -0.54414      1.99966     6.53339    0.01109     8.54414
      C    7    0.54716      1.99897     3.41221    0.04166     5.45284
      N    8   -0.51687      1.99934     5.50118    0.01636     7.51687
      C    9   -0.09314      1.99898     4.07080    0.02336     6.09314
      H   10    0.24229      0.00000     0.75361    0.00410     0.75771
      C   11   -0.07969      1.99906     4.06201    0.01862     6.07969
      O   12   -0.54068      1.99965     6.52987    0.01116     8.54068
      C   13   -0.27552      1.99894     4.25663    0.01995     6.27552
      C   14   -0.44488      1.99909     4.43174    0.01405     6.44488
      C   15   -0.43414      1.99908     4.42077    0.01429     6.43414
      C   16   -0.26765      1.99892     4.24802    0.02071     6.26765
      C   17   -0.42748      1.99907     4.41384    0.01457     6.42748
      C   18   -0.44250      1.99907     4.42953    0.01390     6.44250
      H   19    0.21391      0.00000     0.78314    0.00294     0.78609
      H   20    0.21461      0.00000     0.78254    0.00285     0.78539
      H   21    0.21361      0.00000     0.78341    0.00298     0.78639
      H   22    0.21330      0.00000     0.78386    0.00284     0.78670
      H   23    0.23675      0.00000     0.76010    0.00315     0.76325
      H   24    0.22683      0.00000     0.77063    0.00254     0.77317
      H   25    0.23611      0.00000     0.76064    0.00325     0.76389
      H   26    0.22492      0.00000     0.77248    0.00260     0.77508
      H   27    0.24151      0.00000     0.75541    0.00308     0.75849
      H   28    0.23876      0.00000     0.75787    0.00336     0.76124
      H   29    0.23236      0.00000     0.76516    0.00248     0.76764
      H   30    0.23331      0.00000     0.76396    0.00274     0.76669
      H   31    0.23072      0.00000     0.76673    0.00255     0.76928
      H   32    0.22343      0.00000     0.77390    0.00267     0.77657
 =======================================================================
   * Total *   -0.00000     31.98615    85.64430    0.36955   118.00000

 ******    2 imaginary frequencies (negative Signs) ******

                      1                      2                      3
                      A                      A                      A
 Frequencies --    -90.0012               -55.3241                33.3383
 Red. masses --      6.6498                 5.6277                 3.5946
 Frc consts  --      0.0317                 0.0101                 0.0024
 IR Inten    --      0.3510                 0.8042                 0.0202

                      4                      5                      6
                      A                      A                      A
 Frequencies --     54.5583                76.2515               103.5341
 Red. masses --      3.3678                 2.3607                 3.7487
 Frc consts  --      0.0059                 0.0081                 0.0237
 IR Inten    --      0.1948                 0.0833                 1.5528

                      7                      8                      9
                      A                      A                      A
 Frequencies --    110.4898               174.3601               187.9889
 Red. masses --      3.3120                 3.3407                 3.0278
 Frc consts  --      0.0238                 0.0598                 0.0630
 IR Inten    --      1.7203                 2.1905                 3.6385

                     10                     11                     12
                      A                      A                      A
 Frequencies --    225.1042               268.0478               289.7360
 Red. masses --      2.4780                 3.3573                 3.5382
 Frc consts  --      0.0740                 0.1421                 0.1750
 IR Inten    --      0.2671                 0.8924                 0.3360

                     13                     14                     15
                      A                      A                      A
 Frequencies --    349.2434               387.5098               395.7886
 Red. masses --      3.8919                 3.8229                 3.9611
 Frc consts  --      0.2797                 0.3382                 0.3656
 IR Inten    --      0.6605                 1.5072                 0.6426

                     16                     17                     18
                      A                      A                      A
 Frequencies --    435.1003               497.0885               570.2567
 Red. masses --      3.6450                 4.5117                 3.9808
 Frc consts  --      0.4066                 0.6568                 0.7627
 IR Inten    --      1.9433                 2.4647                 2.3833

                     19                     20                     21
                      A                      A                      A
 Frequencies --    645.2559               726.5317               755.3192
 Red. masses --      4.7740                 2.7387                 1.7748
 Frc consts  --      1.1711                 0.8517                 0.5966
 IR Inten    --     21.7606                 4.4154                 1.6396

                     22                     23                     24
                      A                      A                      A
 Frequencies --    774.1209               779.1410               795.4415
 Red. masses --      3.0066                 1.2114                 2.0361
 Frc consts  --      1.0616                 0.4333                 0.7590
 IR Inten    --      1.1156                 0.8171                 3.2372

                     25                     26                     27
                      A                      A                      A
 Frequencies --    818.8055               827.9530               831.9753
 Red. masses --      2.1228                 1.4281                 1.5928
 Frc consts  --      0.8385                 0.5768                 0.6496
 IR Inten    --      2.8273                12.0913                 0.6857

                     28                     29                     30
                      A                      A                      A
 Frequencies --    835.6400               912.4450               927.3042
 Red. masses --      1.5557                 6.7585                 2.4973
 Frc consts  --      0.6400                 3.3152                 1.2652
 IR Inten    --      6.2245                14.9572                 7.9088

                     31                     32                     33
                      A                      A                      A
 Frequencies --    947.1284               961.0727               968.6402
 Red. masses --      2.5700                 3.2924                 3.2854
 Frc consts  --      1.3583                 1.7918                 1.8162
 IR Inten    --      2.2732                27.2937                 9.4021

                     34                     35                     36
                      A                      A                      A
 Frequencies --    983.9515               985.2983               994.0825
 Red. masses --      4.4880                 1.4849                 4.7018
 Frc consts  --      2.5601                 0.8493                 2.7375
 IR Inten    --     62.3261                 9.1899                60.6077

                     37                     38                     39
                      A                      A                      A
 Frequencies --   1024.1249              1036.7555              1056.4541
 Red. masses --      2.4962                 3.8858                 1.7196
 Frc consts  --      1.5425                 2.4608                 1.1308
 IR Inten    --      4.4131                18.3166                10.6303

                     40                     41                     42
                      A                      A                      A
 Frequencies --   1061.3854              1067.4856              1072.0359
 Red. masses --      1.8409                 1.5573                 1.8452
 Frc consts  --      1.2219                 1.0455                 1.2494
 IR Inten    --      3.6533                 2.0441                 0.4184

                     43                     44                     45
                      A                      A                      A
 Frequencies --   1075.2039              1078.5790              1087.3716
 Red. masses --      2.4955                 1.9372                 1.4955
 Frc consts  --      1.6997                 1.3278                 1.0418
 IR Inten    --     15.1868                 2.0338                 3.2717

                     46                     47                     48
                      A                      A                      A
 Frequencies --   1094.2198              1123.3218              1125.7182
 Red. masses --      3.7405                 1.1779                 1.1740
 Frc consts  --      2.6387                 0.8757                 0.8765
 IR Inten    --     17.0752                 0.2826                 0.8549

                     49                     50                     51
                      A                      A                      A
 Frequencies --   1165.8261              1182.3770              1184.3758
 Red. masses --      1.6451                 1.3817                 1.3794
 Frc consts  --      1.3173                 1.1381                 1.1400
 IR Inten    --      6.4191                 0.2620                 1.2716

                     52                     53                     54
                      A                      A                      A
 Frequencies --   1193.5593              1219.5961              1237.3467
 Red. masses --      1.3517                 1.1055                 1.8150
 Frc consts  --      1.1345                 0.9688                 1.6372
 IR Inten    --      2.5431                 1.7008                 1.7915

                     55                     56                     57
                      A                      A                      A
 Frequencies --   1241.5855              1241.8818              1259.5064
 Red. masses --      1.4405                 1.4830                 1.5469
 Frc consts  --      1.3083                 1.3476                 1.4458
 IR Inten    --      5.8316                 0.8665                41.5887

                     58                     59                     60
                      A                      A                      A
 Frequencies --   1269.0187              1283.0162              1298.0779
 Red. masses --      1.5159                 1.5290                 1.3874
 Frc consts  --      1.4384                 1.4829                 1.3774
 IR Inten    --     84.5867                44.0013                 7.5262

                     61                     62                     63
                      A                      A                      A
 Frequencies --   1326.8125              1351.0449              1400.6773
 Red. masses --      1.4262                 1.5435                 1.6784
 Frc consts  --      1.4793                 1.6599                 1.9401
 IR Inten    --      7.4649                24.4807                 7.0790

                     64                     65                     66
                      A                      A                      A
 Frequencies --   1406.7649              1424.5306              1426.2613
 Red. masses --      2.3725                 1.0964                 1.5552
 Frc consts  --      2.7663                 1.3108                 1.8640
 IR Inten    --    129.0730                 4.2054                 5.8998

                     67                     68                     69
                      A                      A                      A
 Frequencies --   1436.0728              1475.5083              1484.8191
 Red. masses --      1.0916                 1.1343                 1.1455
 Frc consts  --      1.3264                 1.4549                 1.4880
 IR Inten    --      3.9576                 3.1926                16.5199

                     70                     71                     72
                      A                      A                      A
 Frequencies --   1508.8090              1512.6584              1588.9258
 Red. masses --      1.9835                 1.9751                 7.1743
 Frc consts  --      2.6605                 2.6627                10.6717
 IR Inten    --     11.0282                 0.9837               249.9189

                     73                     74                     75
                      A                      A                      A
 Frequencies --   1738.9184              1751.8417              3079.0561
 Red. masses --     11.4800                10.9329                 1.0866
 Frc consts  --     20.4527                19.7685                 6.0696
 IR Inten    --    122.3130                31.6638                18.9247

                     76                     77                     78
                      A                      A                      A
 Frequencies --   3079.2197              3101.0277              3103.4667
 Red. masses --      1.0870                 1.0601                 1.0602
 Frc consts  --      6.0726                 6.0060                 6.0166
 IR Inten    --     14.3098                32.5668                25.5692

                     79                     80                     81
                      A                      A                      A
 Frequencies --   3145.1633              3149.8077              3150.8755
 Red. masses --      1.0525                 1.0624                 1.0527
 Frc consts  --      6.1344                 6.2100                 6.1578
 IR Inten    --      8.8533                 9.7217                 9.7502

                     82                     83                     84
                      A                      A                      A
 Frequencies --   3152.4152              3158.7087              3159.8769
 Red. masses --      1.0654                 1.0913                 1.0866
 Frc consts  --      6.2381                 6.4150                 6.3923
 IR Inten    --      9.4156                 3.4400                13.3318

                     85                     86                     87
                      A                      A                      A
 Frequencies --   3172.3309              3173.7324              3242.5023
 Red. masses --      1.1137                 1.1134                 1.1206
 Frc consts  --      6.6036                 6.6078                 6.9414
 IR Inten    --     13.8632                14.8881                 1.0613

                     88                     89                     90
                      A                      A                      A
 Frequencies --   3244.2101              3252.5678              3252.5819
 Red. masses --      1.1205                 1.1171                 1.1170
 Frc consts  --      6.9482                 6.9627                 6.9622
 IR Inten    --      1.1956                10.5771                 2.3289

 - Thermochemistry -
 -------------------
 Temperature   298.150 Kelvin.  Pressure   1.00000 Atm.
 Atom     1 has atomic number  6 and mass  12.00000

 Molecular mass:   220.12118 amu.
 Principal axes and moments of inertia in atomic units:
                           1         2         3
     Eigenvalues --  1666.203116823.888177572.26049
           X            1.00000   0.00053   0.00231
           Y           -0.00054   0.99998   0.00697
           Z           -0.00231  -0.00698   0.99997
 This molecule is an asymmetric top.
 Rotational symmetry number  1.
 Warning -- assumption of classical behavior for rotation
           may cause significant error
 Rotational temperatures (Kelvin)      0.05198     0.01269     0.01144
 Rotational constants (GHZ):           1.08315     0.26447     0.23834
    2 imaginary frequencies ignored.
 Zero-point vibrational energy     710333.7 (Joules/Mol)
                                  169.77382 (Kcal/Mol)
 Warning -- explicit consideration of  16 degrees of freedom as
           vibrations may cause significant error
 Vibrational temperatures:     47.97    78.50   109.71   148.96   158.97
          (Kelvin)            250.87   270.47   323.87   385.66   416.87
                              502.48   557.54   569.45   626.01   715.20
                              820.47   928.38  1045.32  1086.74  1113.79
                             1121.01  1144.46  1178.08  1191.24  1197.03
                             1202.30  1312.80  1334.18  1362.71  1382.77
                             1393.66  1415.69  1417.62  1430.26  1473.49
                             1491.66  1520.00  1527.10  1535.87  1542.42
                             1546.98  1551.83  1564.49  1574.34  1616.21
                             1619.66  1677.36  1701.18  1704.05  1717.27
                             1754.73  1780.27  1786.36  1786.79  1812.15
                             1825.83  1845.97  1867.64  1908.99  1943.85
                             2015.26  2024.02  2049.58  2052.07  2066.19
                             2122.93  2136.32  2170.84  2176.38  2286.11
                             2501.92  2520.51  4430.08  4430.31  4461.69
                             4465.20  4525.19  4531.87  4533.41  4535.62
                             4544.68  4546.36  4564.28  4566.29  4665.24
                             4667.69  4679.72  4679.74

 Zero-point correction=                           0.270552 (Hartree/Particle)
 Thermal correction to Energy=                    0.283382
 Thermal correction to Enthalpy=                  0.284326
 Thermal correction to Gibbs Free Energy=         0.229565
 Sum of electronic and zero-point Energies=           -725.164268
 Sum of electronic and thermal Energies=              -725.151437
 Sum of electronic and thermal Enthalpies=            -725.150493
 Sum of electronic and thermal Free Energies=         -725.205255

                     E (Thermal)             CV                S
                      KCal/Mol        Cal/Mol-Kelvin    Cal/Mol-Kelvin
 Total                  177.825             50.378            115.255
 Electronic               0.000              0.000              0.000
 Translational            0.889              2.981             42.070
 Rotational               0.889              2.981             32.821
 Vibrational            176.047             44.416             40.365
 Vibration     1          0.594              1.983              5.620
 Vibration     2          0.596              1.976              4.645
 Vibration     3          0.599              1.965              3.985
 Vibration     4          0.605              1.946              3.387
 Vibration     5          0.606              1.941              3.260
 Vibration     6          0.627              1.874              2.388
 Vibration     7          0.633              1.856              2.248
 Vibration     8          0.650              1.803              1.918
 Vibration     9          0.673              1.732              1.609
 Vibration    10          0.686              1.693              1.476
 Vibration    11          0.727              1.577              1.170
 Vibration    12          0.756              1.497              1.010
 Vibration    13          0.763              1.479              0.978
 Vibration    14          0.796              1.394              0.842
 Vibration    15          0.853              1.256              0.665
 Vibration    16          0.926              1.096              0.504

 Normal termination of Gaussian 16 at Sun Jan 15 17:46:01 2023.
