 Gaussian 16, Revision A.03,
 Gaussian 16:  ES64L-G16RevA.03 25-Dec-2016

 ----------------------------------------------------------------------
 #p pop=(regular,nbo,savenbos) freq=noraman def2svp empiricaldispersion
 =gd3bj output=wfx pbe1pbe
 ----------------------------------------------------------------------

 ------
 08_sub
 ------
 Symbolic Z-matrix:
 Charge =  0 Multiplicity = 1

                         Standard orientation:
 ---------------------------------------------------------------------
 Center     Atomic      Atomic             Coordinates (Angstroms)
 Number     Number       Type             X           Y           Z
 ---------------------------------------------------------------------
      1          6           0       -2.176874   -1.960975    1.132054
      2          6           0       -2.173582   -0.471528    0.719442
      3          1           0       -2.007132    0.196223    1.584440
      4          7           0       -0.958712   -0.385062   -0.079768
      5          6           0       -0.322309   -1.484000    0.042093
      6          8           0       -0.868471   -2.453539    0.745414
      7          6           0        1.035569   -1.560734   -0.519653
      8          7           0        1.503498   -0.530557   -1.105868
      9          6           0        2.923302   -0.784698   -1.340139
     10          1           0        3.150209   -0.603129   -2.402140
     11          6           0        3.058538   -2.284639   -0.982612
     12          8           0        1.803268   -2.621779   -0.347294
     13          6           0        3.788679    0.155554   -0.485544
     14          6           0        3.389689    0.131140    0.992218
     15          6           0        4.242771    1.081240    1.825375
     16          6           0        4.171137    2.498733    1.269813
     17          6           0        4.610713    2.530854   -0.189097
     18          6           0        3.777210    1.580109   -1.039165
     19          6           0       -3.419367   -0.002639   -0.023372
     20          6           0       -3.245839    1.409225   -0.586412
     21          6           0       -4.517310    1.913437   -1.257615
     22          6           0       -5.717736    1.841829   -0.321864
     23          6           0       -5.904822    0.429501    0.219550
     24          6           0       -4.637705   -0.075156    0.900122
     25          1           0       -2.926401   -2.548391    0.578540
     26          1           0       -2.295807   -2.137363    2.207789
     27          1           0        3.866286   -2.495460   -0.268681
     28          1           0        3.170461   -2.934692   -1.862523
     29          1           0        4.822842   -0.234195   -0.570628
     30          1           0        3.453897   -0.894313    1.397679
     31          1           0        2.337489    0.451134    1.086598
     32          1           0        5.293277    0.735533    1.827732
     33          1           0        3.902952    1.059277    2.873015
     34          1           0        4.790420    3.180629    1.874562
     35          1           0        3.129474    2.857400    1.343185
     36          1           0        5.678685    2.250352   -0.255667
     37          1           0        4.529778    3.551756   -0.594114
     38          1           0        4.139594    1.574614   -2.080927
     39          1           0        2.740632    1.950915   -1.088601
     40          1           0       -3.583105   -0.696560   -0.871673
     41          1           0       -2.414862    1.436665   -1.310189
     42          1           0       -2.949539    2.089143    0.231638
     43          1           0       -4.720978    1.303122   -2.156236
     44          1           0       -4.361867    2.943581   -1.613704
     45          1           0       -6.631095    2.178465   -0.837950
     46          1           0       -5.562341    2.536775    0.522884
     47          1           0       -6.164063   -0.249068   -0.613224
     48          1           0       -6.750060    0.391131    0.925198
     49          1           0       -4.789944   -1.107034    1.261781
     50          1           0       -4.433072    0.541836    1.794550
 ---------------------------------------------------------------------

 SCF Done:  E(RPBE1PBE) =  -960.971875336     A.U. after   14 cycles

 The electronic state is 1-A.
 Alpha  occ. eigenvalues --  -19.25515 -19.25433 -14.36551 -14.36388 -10.32316
 Alpha  occ. eigenvalues --  -10.32254 -10.29428 -10.29302 -10.26467 -10.26439
 Alpha  occ. eigenvalues --  -10.23508 -10.23505 -10.23103 -10.22742 -10.22370
 Alpha  occ. eigenvalues --  -10.22315 -10.22216 -10.22187 -10.22160 -10.22122
 Alpha  occ. eigenvalues --  -10.21939 -10.21778  -1.13566  -1.12105  -0.93736
 Alpha  occ. eigenvalues --   -0.91505  -0.85845  -0.85090  -0.81764  -0.78644
 Alpha  occ. eigenvalues --   -0.75585  -0.75524  -0.75303  -0.73817  -0.66852
 Alpha  occ. eigenvalues --   -0.65374  -0.64993  -0.61894  -0.61744  -0.59868
 Alpha  occ. eigenvalues --   -0.59143  -0.56874  -0.56376  -0.55281  -0.53905
 Alpha  occ. eigenvalues --   -0.52507  -0.51485  -0.49219  -0.48571  -0.47940
 Alpha  occ. eigenvalues --   -0.47291  -0.45846  -0.45188  -0.44789  -0.44702
 Alpha  occ. eigenvalues --   -0.44545  -0.44052  -0.42074  -0.41475  -0.41013
 Alpha  occ. eigenvalues --   -0.40521  -0.39989  -0.38918  -0.38666  -0.38201
 Alpha  occ. eigenvalues --   -0.38141  -0.37173  -0.36771  -0.36123  -0.34932
 Alpha  occ. eigenvalues --   -0.34621  -0.34615  -0.34401  -0.32375  -0.32190
 Alpha  occ. eigenvalues --   -0.31476  -0.31110  -0.30953  -0.30441  -0.28845
 Alpha  occ. eigenvalues --   -0.27171  -0.26337  -0.24101
 Alpha virt. eigenvalues --   -0.03007   0.06220   0.06428   0.07001   0.07745
 Alpha virt. eigenvalues --    0.08214   0.08591   0.09107   0.09817   0.10559
 Alpha virt. eigenvalues --    0.11299   0.11791   0.12061   0.12342   0.12663

 Mulliken charges:
               1
     1  C    0.261561
     2  C   -0.046835
     3  H    0.039829
     4  N   -0.199306
     5  C    0.133670
     6  O   -0.321500
     7  C    0.148400
     8  N   -0.199026
     9  C   -0.062327
    10  H    0.035132
    11  C    0.257065
    12  O   -0.322078
    13  C   -0.129448
    14  C   -0.053284
    15  C   -0.019789
    16  C   -0.062467
    17  C   -0.027256
    18  C   -0.006877
    19  C   -0.149495
    20  C    0.000335
    21  C   -0.029396
    22  C   -0.063094
    23  C   -0.024861
    24  C   -0.023432
    25  H    0.045115
    26  H    0.053204
    27  H    0.046955
    28  H    0.052701
    29  H    0.022501
    30  H    0.031029
    31  H    0.053603
    32  H    0.020399
    33  H    0.032568
    34  H    0.032735
    35  H    0.031308
    36  H    0.020534
    37  H    0.033275
    38  H    0.021945
    39  H    0.047579
    40  H    0.015595
    41  H    0.057016
    42  H    0.018879
    43  H    0.024454
    44  H    0.034508
    45  H    0.033820
    46  H    0.025855
    47  H    0.025464
    48  H    0.033093
    49  H    0.026652
    50  H    0.023694
 Sum of Mulliken charges =  -0.00000

 Dipole moment (field-independent basis, Debye):
    X=              0.0344    Y=             -0.7056    Z=              0.7211  Tot=              1.0095
 Quadrupole moment (field-independent basis, Debye-Ang):
   XX=           -118.6067   YY=           -136.3650   ZZ=           -131.6221
   XY=             -1.0041   XZ=             -5.3596   YZ=              2.7590

  Exact polarizability: 243.768  -2.124 197.057 -10.225  -3.763 174.392
 Approx polarizability: 287.135  -5.433 287.616 -13.790  -9.440 256.382

 Summary of Natural Population Analysis:

                                       Natural Population
                Natural  -----------------------------------------------
    Atom  No    Charge         Core      Valence    Rydberg      Total
 -----------------------------------------------------------------------
      C    1   -0.08327      1.99905     4.06572    0.01850     6.08327
      C    2   -0.08390      1.99900     4.06076    0.02415     6.08390
      H    3    0.23546      0.00000     0.75987    0.00467     0.76454
      N    4   -0.51087      1.99933     5.49529    0.01625     7.51087
      C    5    0.54454      1.99897     3.41451    0.04199     5.45546
      O    6   -0.54192      1.99966     6.53130    0.01096     8.54192
      C    7    0.54105      1.99897     3.41878    0.04120     5.45895
      N    8   -0.50956      1.99934     5.49373    0.01650     7.50956
      C    9   -0.08381      1.99898     4.05930    0.02553     6.08381
      H   10    0.24264      0.00000     0.75375    0.00361     0.75736
      C   11   -0.08347      1.99906     4.06512    0.01929     6.08347
      O   12   -0.54320      1.99966     6.53240    0.01114     8.54320
      C   13   -0.26432      1.99897     4.24769    0.01766     6.26432
      C   14   -0.46282      1.99910     4.44775    0.01597     6.46282
      C   15   -0.43877      1.99912     4.42549    0.01416     6.43877
      C   16   -0.44690      1.99912     4.43393    0.01385     6.44690
      C   17   -0.44261      1.99912     4.42955    0.01393     6.44261
      C   18   -0.45001      1.99911     4.43454    0.01636     6.45001
      C   19   -0.26338      1.99897     4.24636    0.01805     6.26338
      C   20   -0.45118      1.99912     4.43509    0.01698     6.45118
      C   21   -0.44356      1.99912     4.43049    0.01395     6.44356
      C   22   -0.44700      1.99912     4.43422    0.01367     6.44700
      C   23   -0.44144      1.99912     4.42824    0.01408     6.44144
      C   24   -0.44940      1.99911     4.43511    0.01519     6.44940
      H   25    0.20705      0.00000     0.78958    0.00337     0.79295
      H   26    0.22018      0.00000     0.77729    0.00253     0.77982
      H   27    0.21262      0.00000     0.78432    0.00307     0.78738
      H   28    0.21414      0.00000     0.78290    0.00296     0.78586
      H   29    0.23062      0.00000     0.76457    0.00481     0.76938
      H   30    0.22938      0.00000     0.76718    0.00345     0.77062
      H   31    0.23834      0.00000     0.75686    0.00480     0.76166
      H   32    0.21509      0.00000     0.78087    0.00404     0.78491
      H   33    0.23178      0.00000     0.76494    0.00328     0.76822
      H   34    0.23059      0.00000     0.76620    0.00321     0.76941
      H   35    0.22124      0.00000     0.77484    0.00392     0.77876
      H   36    0.21537      0.00000     0.78061    0.00402     0.78463
      H   37    0.23269      0.00000     0.76404    0.00327     0.76731
      H   38    0.22894      0.00000     0.76770    0.00337     0.77106
      H   39    0.24054      0.00000     0.75526    0.00420     0.75946
      H   40    0.23322      0.00000     0.76136    0.00543     0.76678
      H   41    0.25749      0.00000     0.73896    0.00356     0.74251
      H   42    0.21947      0.00000     0.77662    0.00392     0.78053
      H   43    0.21842      0.00000     0.77762    0.00396     0.78158
      H   44    0.23356      0.00000     0.76321    0.00323     0.76644
      H   45    0.23120      0.00000     0.76557    0.00323     0.76880
      H   46    0.21749      0.00000     0.77850    0.00401     0.78251
      H   47    0.21896      0.00000     0.77707    0.00397     0.78104
      H   48    0.23220      0.00000     0.76453    0.00327     0.76780
      H   49    0.22707      0.00000     0.76958    0.00334     0.77293
      H   50    0.22006      0.00000     0.77576    0.00418     0.77994
 =======================================================================
   * Total *   -0.00000     43.98109   121.50491    0.51400   166.00000

 ******    2 imaginary frequencies (negative Signs) ******

                      1                      2                      3
                      A                      A                      A
 Frequencies --    -79.8679               -25.6926                30.7404
 Red. masses --      6.9336                 4.8104                 3.9898
 Frc consts  --      0.0261                 0.0019                 0.0022
 IR Inten    --      0.7664                 0.3219                 0.0025

                      4                      5                      6
                      A                      A                      A
 Frequencies --     45.7332                55.4065                75.1592
 Red. masses --      3.4083                 2.9343                 4.0192
 Frc consts  --      0.0042                 0.0053                 0.0134
 IR Inten    --      0.1788                 0.0579                 0.3256

                      7                      8                      9
                      A                      A                      A
 Frequencies --     87.7108               121.1124               136.5740
 Red. masses --      4.0676                 3.1064                 2.8687
 Frc consts  --      0.0184                 0.0268                 0.0315
 IR Inten    --      0.1623                 1.4499                 1.2464

                     10                     11                     12
                      A                      A                      A
 Frequencies --    164.2173               198.9426               208.0148
 Red. masses --      3.9573                 3.3620                 2.5503
 Frc consts  --      0.0629                 0.0784                 0.0650
 IR Inten    --      4.3624                 1.8113                 0.0050

                     13                     14                     15
                      A                      A                      A
 Frequencies --    235.7169               242.2352               244.6553
 Red. masses --      2.0121                 1.8043                 3.5231
 Frc consts  --      0.0659                 0.0624                 0.1242
 IR Inten    --      0.1283                 0.0574                 0.2474

                     16                     17                     18
                      A                      A                      A
 Frequencies --    282.1563               309.3572               318.9373
 Red. masses --      4.4043                 2.4478                 2.4860
 Frc consts  --      0.2066                 0.1380                 0.1490
 IR Inten    --      0.8538                 0.3790                 0.2973

                     19                     20                     21
                      A                      A                      A
 Frequencies --    355.9966               366.8778               417.0746
 Red. masses --      2.7403                 2.4914                 2.1735
 Frc consts  --      0.2046                 0.1976                 0.2228
 IR Inten    --      1.0578                 0.6011                 0.6737

                     22                     23                     24
                      A                      A                      A
 Frequencies --    427.6289               445.0057               449.2886
 Red. masses --      2.9055                 2.9416                 3.0452
 Frc consts  --      0.3130                 0.3432                 0.3622
 IR Inten    --      2.3087                 0.6871                 0.0223

                     25                     26                     27
                      A                      A                      A
 Frequencies --    454.8456               470.3857               510.9137
 Red. masses --      3.0666                 2.8580                 1.7508
 Frc consts  --      0.3738                 0.3726                 0.2693
 IR Inten    --      0.2290                 1.0494                 0.5337

                     28                     29                     30
                      A                      A                      A
 Frequencies --    521.8597               531.8531               594.4948
 Red. masses --      2.6326                 2.4831                 3.1587
 Frc consts  --      0.4224                 0.4138                 0.6577
 IR Inten    --      3.6405                 2.8879                 8.6643

                     31                     32                     33
                      A                      A                      A
 Frequencies --    679.3201               737.2364               761.8121
 Red. masses --      4.3346                 3.2718                 7.3793
 Frc consts  --      1.1785                 1.0477                 2.5233
 IR Inten    --     19.5481                 7.0348                 0.6563

                     34                     35                     36
                      A                      A                      A
 Frequencies --    782.0373               794.9707               799.8947
 Red. masses --      3.2516                 1.4566                 1.4459
 Frc consts  --      1.1717                 0.5424                 0.5451
 IR Inten    --      4.1670                 0.0316                 0.0386

                     37                     38                     39
                      A                      A                      A
 Frequencies --    812.2843               818.1955               865.5636
 Red. masses --      3.2253                 2.2717                 1.9571
 Frc consts  --      1.2538                 0.8960                 0.8639
 IR Inten    --      5.0818                 2.3250                 3.2741

                     40                     41                     42
                      A                      A                      A
 Frequencies --    866.7189               882.8928               899.5142
 Red. masses --      2.3793                 1.7976                 1.8492
 Frc consts  --      1.0531                 0.8256                 0.8816
 IR Inten    --      2.2493                 4.4412                 1.1417

                     43                     44                     45
                      A                      A                      A
 Frequencies --    906.1116               907.2313               913.6652
 Red. masses --      1.5302                 1.3801                 3.7545
 Frc consts  --      0.7402                 0.6692                 1.8466
 IR Inten    --      4.4481                 2.1435                19.1087

                     46                     47                     48
                      A                      A                      A
 Frequencies --    923.7690               930.8744               943.9087
 Red. masses --      2.4231                 2.4950                 1.9454
 Frc consts  --      1.2183                 1.2738                 1.0212
 IR Inten    --      0.1555                 1.5114                 0.1780

                     49                     50                     51
                      A                      A                      A
 Frequencies --    947.7346               981.8293               990.6775
 Red. masses --      2.1421                 5.4718                 2.5491
 Frc consts  --      1.1336                 3.1078                 1.4740
 IR Inten    --      3.0593                10.8039                33.0652

                     52                     53                     54
                      A                      A                      A
 Frequencies --    995.5454              1015.4027              1020.5543
 Red. masses --      2.8044                 2.2897                 2.3645
 Frc consts  --      1.6376                 1.3909                 1.4510
 IR Inten    --     58.7021                 2.0974                 9.1403

                     55                     56                     57
                      A                      A                      A
 Frequencies --   1038.0519              1044.0135              1058.4136
 Red. masses --      3.2586                 2.6360                 2.4873
 Frc consts  --      2.0688                 1.6928                 1.6417
 IR Inten    --      5.8650                 7.7434                11.3969

                     58                     59                     60
                      A                      A                      A
 Frequencies --   1063.0270              1063.3703              1070.8473
 Red. masses --      1.5470                 1.7206                 1.3102
 Frc consts  --      1.0300                 1.1463                 0.8852
 IR Inten    --      2.2420                 1.2624                 2.1047

                     61                     62                     63
                      A                      A                      A
 Frequencies --   1072.7505              1076.7345              1097.2876
 Red. masses --      1.2381                 1.9751                 1.3184
 Frc consts  --      0.8395                 1.3491                 0.9353
 IR Inten    --      2.8526                 6.0926                 2.8656

                     64                     65                     66
                      A                      A                      A
 Frequencies --   1102.2444              1123.5633              1143.0052
 Red. masses --      1.3452                 2.0160                 2.1918
 Frc consts  --      0.9629                 1.4995                 1.6871
 IR Inten    --      0.6168                 8.2185                 0.5150

                     67                     68                     69
                      A                      A                      A
 Frequencies --   1147.8018              1150.3843              1164.8621
 Red. masses --      2.1364                 2.0384                 2.3787
 Frc consts  --      1.6583                 1.5893                 1.9017
 IR Inten    --      3.4850                 2.5082                 2.7082

                     70                     71                     72
                      A                      A                      A
 Frequencies --   1181.7204              1204.5951              1212.0280
 Red. masses --      2.3468                 1.3495                 1.4290
 Frc consts  --      1.9309                 1.1537                 1.2368
 IR Inten    --      3.7843                 1.5831                 3.5552

                     73                     74                     75
                      A                      A                      A
 Frequencies --   1217.3627              1223.4690              1241.7623
 Red. masses --      1.2880                 1.2775                 1.3733
 Frc consts  --      1.1246                 1.1267                 1.2477
 IR Inten    --      0.0540                 4.2771                12.5137

                     76                     77                     78
                      A                      A                      A
 Frequencies --   1241.8847              1256.8398              1277.5058
 Red. masses --      1.3734                 1.7994                 1.3150
 Frc consts  --      1.2480                 1.6747                 1.2644
 IR Inten    --     14.5579                64.8662                 3.2710

                     79                     80                     81
                      A                      A                      A
 Frequencies --   1279.0962              1280.8925              1287.6831
 Red. masses --      1.3223                 1.3477                 1.2008
 Frc consts  --      1.2746                 1.3027                 1.1731
 IR Inten    --      9.9237                 7.3279                16.3850

                     82                     83                     84
                      A                      A                      A
 Frequencies --   1292.8458              1293.9377              1299.9760
 Red. masses --      1.3427                 1.2212                 1.3375
 Frc consts  --      1.3223                 1.2046                 1.3317
 IR Inten    --     26.2593                 3.0027                26.5313

                     85                     86                     87
                      A                      A                      A
 Frequencies --   1311.7705              1320.8528              1326.6751
 Red. masses --      1.2773                 1.2758                 1.3211
 Frc consts  --      1.2949                 1.3114                 1.3699
 IR Inten    --      7.0515                 0.8978                 9.1890

                     88                     89                     90
                      A                      A                      A
 Frequencies --   1331.1855              1344.4508              1355.9850
 Red. masses --      1.3393                 1.4592                 1.4484
 Frc consts  --      1.3983                 1.5541                 1.5691
 IR Inten    --      8.4615                 6.2015                 1.4725

                     91                     92                     93
                      A                      A                      A
 Frequencies --   1363.9224              1371.3552              1381.9120
 Red. masses --      1.5316                 1.5714                 1.5749
 Frc consts  --      1.6787                 1.7412                 1.7720
 IR Inten    --      2.5879                11.5208                 1.8568

                     94                     95                     96
                      A                      A                      A
 Frequencies --   1382.2741              1386.5883              1387.0737
 Red. masses --      1.6728                 1.6448                 1.6733
 Frc consts  --      1.8831                 1.8631                 1.8968
 IR Inten    --      0.5282                 0.4249                 2.8225

                     97                     98                     99
                      A                      A                      A
 Frequencies --   1387.3244              1392.9948              1400.8597
 Red. masses --      1.7145                 1.8139                 2.0271
 Frc consts  --      1.9442                 2.0737                 2.3438
 IR Inten    --      0.5473                 0.7881                44.3385

                    100                    101                    102
                      A                      A                      A
 Frequencies --   1405.3662              1413.2800              1449.8309
 Red. masses --      2.0458                 1.9688                 1.0902
 Frc consts  --      2.3806                 2.3168                 1.3502
 IR Inten    --     84.7470                 1.6053                 0.0229

                    103                    104                    105
                      A                      A                      A
 Frequencies --   1452.8712              1454.5484              1455.4493
 Red. masses --      1.0922                 1.1036                 1.1067
 Frc consts  --      1.3583                 1.3757                 1.3812
 IR Inten    --      0.5811                 5.2122                 4.9696

                    106                    107                    108
                      A                      A                      A
 Frequencies --   1458.3139              1463.0084              1463.6726
 Red. masses --      1.1094                 1.1119                 1.1078
 Frc consts  --      1.3900                 1.4022                 1.3983
 IR Inten    --      7.4905                 6.7256                11.5583

                    109                    110                    111
                      A                      A                      A
 Frequencies --   1465.0604              1475.9330              1479.1732
 Red. masses --      1.1026                 1.1286                 1.1157
 Frc consts  --      1.3944                 1.4485                 1.4382
 IR Inten    --     14.5680                 2.7364                 1.1079

                    112                    113                    114
                      A                      A                      A
 Frequencies --   1480.8596              1486.0583              1575.1085
 Red. masses --      1.1113                 1.1328                 6.6168
 Frc consts  --      1.4358                 1.4740                 9.6721
 IR Inten    --      5.6603                 8.0600               245.9891

                    115                    116                    117
                      A                      A                      A
 Frequencies --   1742.7452              1751.4639              3011.7682
 Red. masses --     11.6240                10.9691                 1.0839
 Frc consts  --     20.8004                19.8255                 5.7929
 IR Inten    --     99.6681                28.4884                23.3903

                    118                    119                    120
                      A                      A                      A
 Frequencies --   3017.6445              3033.1819              3035.4108
 Red. masses --      1.0829                 1.0641                 1.0680
 Frc consts  --      5.8098                 5.7679                 5.7979
 IR Inten    --      3.7862                22.4960                19.0184

                    121                    122                    123
                      A                      A                      A
 Frequencies --   3037.6667              3042.8434              3043.0628
 Red. masses --      1.0673                 1.0810                 1.0656
 Frc consts  --      5.8027                 5.8971                 5.8141
 IR Inten    --     48.4119                19.9225                21.6300

                    124                    125                    126
                      A                      A                      A
 Frequencies --   3044.4704              3044.6171              3048.0252
 Red. masses --      1.0676                 1.0703                 1.0632
 Frc consts  --      5.8304                 5.8455                 5.8198
 IR Inten    --     13.6470                22.4042                24.3393

                    127                    128                    129
                      A                      A                      A
 Frequencies --   3051.2966              3055.5001              3062.3306
 Red. masses --      1.0631                 1.0663                 1.0647
 Frc consts  --      5.8318                 5.8655                 5.8828
 IR Inten    --     21.4564                35.3285                21.0759

                    130                    131                    132
                      A                      A                      A
 Frequencies --   3084.5481              3088.3008              3090.5011
 Red. masses --      1.0684                 1.0792                 1.0982
 Frc consts  --      5.9890                 6.0645                 6.1798
 IR Inten    --     15.2829                14.9685                49.9366

                    133                    134                    135
                      A                      A                      A
 Frequencies --   3098.0560              3100.9072              3107.9577
 Red. masses --      1.0691                 1.1022                 1.0987
 Frc consts  --      6.0455                 6.2444                 6.2531
 IR Inten    --     42.0521                23.8178                46.3596

                    136                    137                    138
                      A                      A                      A
 Frequencies --   3108.3965              3109.1931              3111.3161
 Red. masses --      1.0982                 1.1004                 1.1021
 Frc consts  --      6.2519                 6.2672                 6.2860
 IR Inten    --     29.9868                35.3221                35.5807

                    139                    140                    141
                      A                      A                      A
 Frequencies --   3113.5409              3114.6770              3118.0880
 Red. masses --      1.1048                 1.0989                 1.1035
 Frc consts  --      6.3103                 6.2810                 6.3215
 IR Inten    --     20.4651                14.4944                37.1231

                    142                    143                    144
                      A                      A                      A
 Frequencies --   3119.0054              3164.3802              3176.8208
 Red. masses --      1.1032                 1.1125                 1.1073
 Frc consts  --      6.3231                 6.5634                 6.5844
 IR Inten    --     45.2741                16.2544                12.4321

 - Thermochemistry -
 -------------------
 Temperature   298.150 Kelvin.  Pressure   1.00000 Atm.
 Atom     1 has atomic number  6 and mass  12.00000

 Molecular mass:   304.21508 amu.
 Principal axes and moments of inertia in atomic units:
                           1         2         3
     Eigenvalues --  3798.35495********************
           X            0.99999   0.00264   0.00214
           Y           -0.00263   0.99999  -0.00264
           Z           -0.00215   0.00264   0.99999
 This molecule is an asymmetric top.
 Rotational symmetry number  1.
 Warning -- assumption of classical behavior for rotation
           may cause significant error
 Rotational temperatures (Kelvin)      0.02280     0.00609     0.00538
 Rotational constants (GHZ):           0.47514     0.12692     0.11210
    2 imaginary frequencies ignored.
 Zero-point vibrational energy    1177365.1 (Joules/Mol)
                                  281.39701 (Kcal/Mol)
 Warning -- explicit consideration of  28 degrees of freedom as
           vibrations may cause significant error
 Vibrational temperatures:     44.23    65.80    79.72   108.14   126.20
          (Kelvin)            174.25   196.50   236.27   286.23   299.29
                              339.14   348.52   352.00   405.96   445.10
                              458.88   512.20   527.86   600.08   615.26
                              640.26   646.43   654.42   676.78   735.09
                              750.84   765.22   855.35   977.39  1060.72
                             1096.08  1125.18  1143.79  1150.87  1168.70
                             1177.20  1245.35  1247.02  1270.29  1294.20
                             1303.69  1305.30  1314.56  1329.10  1339.32
                             1358.07  1363.58  1412.63  1425.36  1432.37
                             1460.94  1468.35  1493.53  1502.10  1522.82
                             1529.46  1529.95  1540.71  1543.45  1549.18
                             1578.75  1585.88  1616.56  1644.53  1651.43
                             1655.15  1675.98  1700.23  1733.14  1743.84
                             1751.51  1760.30  1786.62  1786.80  1808.31
                             1838.05  1840.33  1842.92  1852.69  1860.12
                             1861.69  1870.38  1887.35  1900.41  1908.79
                             1915.28  1934.36  1950.96  1962.38  1973.07
                             1988.26  1988.78  1994.99  1995.69  1996.05
                             2004.21  2015.52  2022.01  2033.39  2085.98
                             2090.36  2092.77  2094.07  2098.19  2104.94
                             2105.90  2107.90  2123.54  2128.20  2130.63
                             2138.11  2266.23  2507.42  2519.97  4333.26
                             4341.72  4364.07  4367.28  4370.52  4377.97
                             4378.29  4380.31  4380.52  4385.43  4390.14
                             4396.18  4406.01  4437.98  4443.38  4446.54
                             4457.41  4461.51  4471.66  4472.29  4473.44
                             4476.49  4479.69  4481.33  4486.23  4487.55
                             4552.84  4570.74

 Zero-point correction=                           0.448435 (Hartree/Particle)
 Thermal correction to Energy=                    0.466569
 Thermal correction to Enthalpy=                  0.467513
 Thermal correction to Gibbs Free Energy=         0.401593
 Sum of electronic and zero-point Energies=           -960.523441
 Sum of electronic and thermal Energies=              -960.505306
 Sum of electronic and thermal Enthalpies=            -960.504362
 Sum of electronic and thermal Free Energies=         -960.570282

                     E (Thermal)             CV                S
                      KCal/Mol        Cal/Mol-Kelvin    Cal/Mol-Kelvin
 Total                  292.777             74.479            138.741
 Electronic               0.000              0.000              0.000
 Translational            0.889              2.981             43.034
 Rotational               0.889              2.981             35.118
 Vibrational            290.999             68.518             60.588
 Vibration     1          0.594              1.984              5.781
 Vibration     2          0.595              1.979              4.994
 Vibration     3          0.596              1.975              4.614
 Vibration     4          0.599              1.966              4.013
 Vibration     5          0.601              1.958              3.710
 Vibration     6          0.609              1.932              3.083
 Vibration     7          0.614              1.917              2.851
 Vibration     8          0.623              1.886              2.501
 Vibration     9          0.637              1.841              2.143
 Vibration    10          0.641              1.828              2.061
 Vibration    11          0.655              1.786              1.835
 Vibration    12          0.658              1.776              1.786
 Vibration    13          0.660              1.772              1.769
 Vibration    14          0.681              1.707              1.521
 Vibration    15          0.699              1.656              1.366
 Vibration    16          0.705              1.637              1.316
 Vibration    17          0.732              1.563              1.140
 Vibration    18          0.740              1.540              1.093
 Vibration    19          0.780              1.433              0.902
 Vibration    20          0.789              1.410              0.866
 Vibration    21          0.804              1.372              0.811
 Vibration    22          0.808              1.362              0.798
 Vibration    23          0.813              1.350              0.781
 Vibration    24          0.827              1.316              0.736
 Vibration    25          0.866              1.226              0.631
 Vibration    26          0.877              1.202              0.606
 Vibration    27          0.887              1.180              0.583
 Vibration    28          0.952              1.044              0.459

 Normal termination of Gaussian 16 at Mon Jan 23 09:24:07 2023.
