 Gaussian 16, Revision A.03,
 Gaussian 16:  ES64L-G16RevA.03 25-Dec-2016

 ----------------------------------------------------------------------
 #p pop=(regular,nbo,savenbos) freq=noraman def2svp empiricaldispersion
 =gd3bj output=wfx pbe1pbe
 ----------------------------------------------------------------------

 ------
 09_sub
 ------
 Symbolic Z-matrix:
 Charge =  0 Multiplicity = 1

                         Standard orientation:
 ---------------------------------------------------------------------
 Center     Atomic      Atomic             Coordinates (Angstroms)
 Number     Number       Type             X           Y           Z
 ---------------------------------------------------------------------
      1          6           0        2.163918   -1.462336   -1.862259
      2          6           0        2.325062    0.016745   -1.458969
      3          1           0        2.288205    0.691211   -2.326551
      4          7           0        1.104854    0.234214   -0.678870
      5          6           0        0.599000   -0.909673   -0.427088
      6          8           0        1.160731   -1.982665   -0.947902
      7          6           0       -0.599049   -0.909620    0.427666
      8          7           0       -1.104910    0.234292    0.679304
      9          6           0       -2.325267    0.016932    1.459184
     10          1           0       -2.288586    0.691466    2.326705
     11          6           0       -2.164291   -1.462138    1.862585
     12          8           0       -1.160923   -1.982559    0.948469
     13          6           0       -3.522578    0.367755    0.597828
     14          6           0       -3.868232    1.717648    0.464135
     15          6           0       -4.924234    2.089969   -0.362904
     16          6           0       -5.642830    1.123277   -1.065953
     17          6           0       -5.292203   -0.219727   -0.948646
     18          6           0       -4.232181   -0.595618   -0.124525
     19          6           0        3.522560    0.367651   -0.597883
     20          6           0        4.232844   -0.595655    0.123866
     21          6           0        5.293015   -0.219587    0.947726
     22          6           0        5.643140    1.123509    1.065335
     23          6           0        4.923912    2.090138    0.362840
     24          6           0        3.867752    1.717649   -0.463919
     25          1           0        3.070036   -2.069168   -1.759678
     26          1           0        1.762103   -1.575238   -2.879763
     27          1           0       -1.762701   -1.575016    2.880179
     28          1           0       -3.070414   -2.068915    1.759810
     29          1           0       -3.273646    2.474262    0.985945
     30          1           0       -5.183382    3.146541   -0.461686
     31          1           0       -6.473004    1.417843   -1.712256
     32          1           0       -5.843401   -0.982294   -1.503863
     33          1           0       -3.964299   -1.653443   -0.061357
     34          1           0        3.965384   -1.653571    0.060471
     35          1           0        5.844729   -0.982119    1.502476
     36          1           0        6.473448    1.418204    1.711418
     37          1           0        5.182687    3.146786    0.461827
     38          1           0        3.272746    2.474185   -0.985374
 ---------------------------------------------------------------------

 SCF Done:  E(RPBE1PBE) =  -953.709677038     A.U. after   14 cycles

 The electronic state is 1-A.
 Alpha  occ. eigenvalues --  -19.25922 -19.25912 -14.36734 -14.36727 -10.32558
 Alpha  occ. eigenvalues --  -10.32542 -10.29933 -10.29932 -10.27404 -10.27403
 Alpha  occ. eigenvalues --  -10.24694 -10.24694 -10.24080 -10.24080 -10.24000
 Alpha  occ. eigenvalues --  -10.24000 -10.23898 -10.23897 -10.23840 -10.23839
 Alpha  occ. eigenvalues --  -10.23755 -10.23755  -1.13853  -1.12545  -0.94213
 Alpha  occ. eigenvalues --   -0.91914  -0.87910  -0.87406  -0.82667  -0.79214
 Alpha  occ. eigenvalues --   -0.76384  -0.76329  -0.76041  -0.74616  -0.67819
 Alpha  occ. eigenvalues --   -0.66014  -0.65288  -0.62208  -0.62091  -0.60343
 Alpha  occ. eigenvalues --   -0.59553  -0.56488  -0.55161  -0.54359  -0.53326
 Alpha  occ. eigenvalues --   -0.51479  -0.50313  -0.49156  -0.48120  -0.46782
 Alpha  occ. eigenvalues --   -0.46713  -0.46602  -0.46059  -0.44805  -0.43576
 Alpha  occ. eigenvalues --   -0.43389  -0.42860  -0.42849  -0.41940  -0.41320
 Alpha  occ. eigenvalues --   -0.38724  -0.38343  -0.38071  -0.37802  -0.37004
 Alpha  occ. eigenvalues --   -0.36309  -0.36236  -0.35210  -0.35148  -0.29610
 Alpha  occ. eigenvalues --   -0.28064  -0.26944  -0.26755  -0.26398  -0.26354
 Alpha  occ. eigenvalues --   -0.25926  -0.24461
 Alpha virt. eigenvalues --   -0.03499  -0.00743  -0.00569  -0.00567   0.00087
 Alpha virt. eigenvalues --    0.06846   0.07100   0.08434   0.08587   0.09445
 Alpha virt. eigenvalues --    0.09555   0.10086   0.11219   0.12539   0.12634

 Mulliken charges:
               1
     1  C    0.245985
     2  C   -0.051922
     3  H    0.044555
     4  N   -0.201247
     5  C    0.151358
     6  O   -0.324733
     7  C    0.151369
     8  N   -0.201226
     9  C   -0.051908
    10  H    0.044532
    11  C    0.245973
    12  O   -0.324756
    13  C    0.013874
    14  C   -0.000258
    15  C   -0.019808
    16  C   -0.011095
    17  C   -0.019366
    18  C   -0.041821
    19  C    0.013861
    20  C   -0.041813
    21  C   -0.019370
    22  C   -0.011094
    23  C   -0.019808
    24  C   -0.000245
    25  H    0.051357
    26  H    0.057822
    27  H    0.057826
    28  H    0.051364
    29  H    0.021031
    30  H    0.022400
    31  H    0.021928
    32  H    0.019625
    33  H    0.020319
    34  H    0.020297
    35  H    0.019623
    36  H    0.021930
    37  H    0.022402
    38  H    0.021042
 Sum of Mulliken charges =  -0.00000

 Dipole moment (field-independent basis, Debye):
    X=             -0.0004    Y=             -0.8907    Z=             -0.0005  Tot=              0.8907
 Quadrupole moment (field-independent basis, Debye-Ang):
   XX=           -112.4786   YY=           -122.3071   ZZ=           -117.4383
   XY=             -0.0027   XZ=             -0.1199   YZ=              0.0031

  Exact polarizability: 245.942  -0.012 199.921  34.088   0.012 154.653
 Approx polarizability: 295.406  -0.026 349.804  57.902   0.023 236.869

 Summary of Natural Population Analysis:

                                       Natural Population
                Natural  -----------------------------------------------
    Atom  No    Charge         Core      Valence    Rydberg      Total
 -----------------------------------------------------------------------
      C    1   -0.08301      1.99906     4.06452    0.01943     6.08301
      C    2   -0.10147      1.99897     4.07830    0.02420     6.10147
      H    3    0.25082      0.00000     0.74584    0.00334     0.74918
      N    4   -0.49059      1.99934     5.47478    0.01648     7.49059
      C    5    0.53849      1.99897     3.42083    0.04172     5.46151
      O    6   -0.54481      1.99966     6.53411    0.01105     8.54481
      C    7    0.53848      1.99897     3.42083    0.04172     5.46152
      N    8   -0.49059      1.99934     5.47477    0.01648     7.49059
      C    9   -0.10146      1.99897     4.07829    0.02421     6.10146
      H   10    0.25081      0.00000     0.74585    0.00334     0.74919
      C   11   -0.08302      1.99906     4.06453    0.01943     6.08302
      O   12   -0.54482      1.99966     6.53412    0.01105     8.54482
      C   13   -0.05242      1.99886     4.03401    0.01954     6.05242
      C   14   -0.20835      1.99888     4.19323    0.01624     6.20835
      C   15   -0.21921      1.99895     4.20511    0.01515     6.21921
      C   16   -0.23094      1.99895     4.21694    0.01506     6.23094
      C   17   -0.21840      1.99895     4.20401    0.01545     6.21840
      C   18   -0.23352      1.99889     4.21983    0.01480     6.23352
      C   19   -0.05242      1.99886     4.03402    0.01954     6.05242
      C   20   -0.23352      1.99888     4.21984    0.01480     6.23352
      C   21   -0.21840      1.99895     4.20401    0.01545     6.21840
      C   22   -0.23095      1.99895     4.21694    0.01506     6.23095
      C   23   -0.21921      1.99895     4.20511    0.01515     6.21921
      C   24   -0.20834      1.99888     4.19322    0.01625     6.20834
      H   25    0.21844      0.00000     0.77848    0.00307     0.78156
      H   26    0.21733      0.00000     0.77961    0.00305     0.78267
      H   27    0.21733      0.00000     0.77961    0.00305     0.78267
      H   28    0.21845      0.00000     0.77848    0.00307     0.78155
      H   29    0.23634      0.00000     0.76071    0.00294     0.76366
      H   30    0.23144      0.00000     0.76582    0.00274     0.76856
      H   31    0.23088      0.00000     0.76641    0.00271     0.76912
      H   32    0.23080      0.00000     0.76646    0.00274     0.76920
      H   33    0.22818      0.00000     0.76840    0.00342     0.77182
      H   34    0.22817      0.00000     0.76841    0.00342     0.77183
      H   35    0.23080      0.00000     0.76646    0.00274     0.76920
      H   36    0.23088      0.00000     0.76641    0.00271     0.76912
      H   37    0.23144      0.00000     0.76582    0.00274     0.76856
      H   38    0.23635      0.00000     0.76071    0.00294     0.76365
 =======================================================================
   * Total *   -0.00000     43.97894   109.55479    0.46626   154.00000

 ******    2 imaginary frequencies (negative Signs) ******

                      1                      2                      3
                      A                      A                      A
 Frequencies --    -62.4904               -46.3846                25.9455
 Red. masses --      7.3406                 6.1891                 3.7917
 Frc consts  --      0.0169                 0.0078                 0.0015
 IR Inten    --      0.2405                 0.4608                 0.0004

                      4                      5                      6
                      A                      A                      A
 Frequencies --     26.5315                32.2243                71.6521
 Red. masses --      3.9507                 4.9652                 6.6583
 Frc consts  --      0.0016                 0.0030                 0.0201
 IR Inten    --      0.2403                 0.0159                 0.5276

                      7                      8                      9
                      A                      A                      A
 Frequencies --     95.6004               136.3903               151.0352
 Red. masses --      6.6244                 5.1620                 5.3800
 Frc consts  --      0.0357                 0.0566                 0.0723
 IR Inten    --      0.0894                 4.4428                 1.8847

                     10                     11                     12
                      A                      A                      A
 Frequencies --    206.5608               255.3374               261.7105
 Red. masses --      5.4631                 3.0691                 2.6292
 Frc consts  --      0.1373                 0.1179                 0.1061
 IR Inten    --      0.7131                 3.5015                 0.1038

                     13                     14                     15
                      A                      A                      A
 Frequencies --    291.5016               296.3335               364.6046
 Red. masses --      4.5317                 7.2668                 3.7987
 Frc consts  --      0.2269                 0.3760                 0.2975
 IR Inten    --      0.5351                 0.1346                 2.3237

                     16                     17                     18
                      A                      A                      A
 Frequencies --    375.6272               416.0751               416.1787
 Red. masses --      3.6947                 2.8440                 2.8515
 Frc consts  --      0.3071                 0.2901                 0.2910
 IR Inten    --      0.5165                 0.1313                 0.0039

                     19                     20                     21
                      A                      A                      A
 Frequencies --    428.4545               444.5234               535.9298
 Red. masses --      5.0464                 6.0505                 3.5825
 Frc consts  --      0.5458                 0.7044                 0.6063
 IR Inten    --      0.0720                 9.1689                10.8707

                     22                     23                     24
                      A                      A                      A
 Frequencies --    542.0140               544.7720               603.7597
 Red. masses --      3.5042                 4.3323                 4.0184
 Frc consts  --      0.6065                 0.7575                 0.8630
 IR Inten    --      0.0111                 1.2633                 1.5006

                     25                     26                     27
                      A                      A                      A
 Frequencies --    630.2917               630.3886               657.5672
 Red. masses --      6.3419                 6.3425                 6.6793
 Frc consts  --      1.4844                 1.4850                 1.7016
 IR Inten    --      0.1063                 0.0202                37.0064

                     28                     29                     30
                      A                      A                      A
 Frequencies --    721.7094               721.8909               753.1425
 Red. masses --      1.5258                 1.5212                 6.2116
 Frc consts  --      0.4682                 0.4671                 2.0759
 IR Inten    --      1.0136                80.3866                 1.2429

                     31                     32                     33
                      A                      A                      A
 Frequencies --    766.0395               772.7147               786.9566
 Red. masses --      2.5624                 2.9040                 3.6959
 Frc consts  --      0.8859                 1.0216                 1.3486
 IR Inten    --     43.2139                 0.7139                 8.3927

                     34                     35                     36
                      A                      A                      A
 Frequencies --    791.0531               826.2994               829.9984
 Red. masses --      3.7327                 3.8640                 4.3863
 Frc consts  --      1.3762                 1.5544                 1.7803
 IR Inten    --      2.0745                 0.9137                14.7897

                     37                     38                     39
                      A                      A                      A
 Frequencies --    862.2870               862.3588               919.2161
 Red. masses --      1.2530                 1.2534                 5.9542
 Frc consts  --      0.5489                 0.5492                 2.9642
 IR Inten    --      0.0853                 0.4794                10.7898

                     40                     41                     42
                      A                      A                      A
 Frequencies --    937.3698               941.5729               964.7357
 Red. masses --      1.5481                 1.6696                 4.6545
 Frc consts  --      0.8015                 0.8721                 2.5524
 IR Inten    --      0.9482                 5.8808                 0.2744

                     43                     44                     45
                      A                      A                      A
 Frequencies --    966.7536              1000.3622              1000.3793
 Red. masses --      5.0845                 1.3877                 1.3881
 Frc consts  --      2.7998                 0.8182                 0.8185
 IR Inten    --     96.7562                 0.1917                 0.2949

                     46                     47                     48
                      A                      A                      A
 Frequencies --   1003.4692              1006.6923              1016.6692
 Red. masses --      2.2845                 2.4647                 5.4828
 Frc consts  --      1.3553                 1.4717                 3.3390
 IR Inten    --      0.0474                21.9512                 0.7534

                     49                     50                     51
                      A                      A                      A
 Frequencies --   1017.7349              1020.4031              1024.8292
 Red. masses --      4.8876                 3.5301                 1.3804
 Frc consts  --      2.9827                 2.1656                 0.8542
 IR Inten    --      1.4384                 0.0284                 0.3693

                     52                     53                     54
                      A                      A                      A
 Frequencies --   1025.4694              1033.7335              1043.1077
 Red. masses --      1.4499                 2.3436                 2.5448
 Frc consts  --      0.8983                 1.4755                 1.6314
 IR Inten    --      0.0284                 7.0390                11.2463

                     55                     56                     57
                      A                      A                      A
 Frequencies --   1061.2107              1064.4360              1066.9554
 Red. masses --      3.1764                 2.0487                 2.3052
 Frc consts  --      2.1076                 1.3676                 1.5461
 IR Inten    --     10.3061                 0.0080                 1.9304

                     58                     59                     60
                      A                      A                      A
 Frequencies --   1074.1267              1117.3002              1117.8891
 Red. masses --      4.7560                 1.4315                 1.4486
 Frc consts  --      3.2330                 1.0529                 1.0666
 IR Inten    --     24.8005                 1.4973                11.1486

                     61                     62                     63
                      A                      A                      A
 Frequencies --   1170.8430              1170.8601              1195.1476
 Red. masses --      1.0697                 1.0697                 1.1081
 Frc consts  --      0.8640                 0.8640                 0.9326
 IR Inten    --      0.0083                 0.0145                 2.9584

                     64                     65                     66
                      A                      A                      A
 Frequencies --   1195.4994              1205.6736              1211.7522
 Red. masses --      1.1044                 1.3188                 1.3473
 Frc consts  --      0.9300                 1.1295                 1.1656
 IR Inten    --      0.2587                 5.6213                 2.9793

                     67                     68                     69
                      A                      A                      A
 Frequencies --   1232.5234              1233.1375              1251.0566
 Red. masses --      1.5829                 1.5134                 1.3420
 Frc consts  --      1.4167                 1.3559                 1.2375
 IR Inten    --      6.7197                 0.7035                10.2005

                     70                     71                     72
                      A                      A                      A
 Frequencies --   1251.5810              1271.2223              1322.6905
 Red. masses --      1.3728                 1.9694                 1.6082
 Frc consts  --      1.2670                 1.8751                 1.6577
 IR Inten    --     20.3411               145.7126                 3.1927

                     73                     74                     75
                      A                      A                      A
 Frequencies --   1324.6630              1334.2928              1365.0306
 Red. masses --      1.6156                 1.3638                 1.7046
 Frc consts  --      1.6703                 1.4306                 1.8714
 IR Inten    --     12.7582                 9.3057                 8.7505

                     76                     77                     78
                      A                      A                      A
 Frequencies --   1368.1569              1398.9133              1404.3036
 Red. masses --      1.7590                 2.5003                 5.8129
 Frc consts  --      1.9400                 2.8828                 6.7540
 IR Inten    --      5.3689               118.2416                 0.0068

                     79                     80                     81
                      A                      A                      A
 Frequencies --   1404.7206              1477.7953              1484.6387
 Red. masses --      5.5741                 1.1569                 1.2708
 Frc consts  --      6.4804                 1.4886                 1.6503
 IR Inten    --      5.6454                 0.5278                15.3155

                     82                     83                     84
                      A                      A                      A
 Frequencies --   1494.2360              1495.8130              1538.9010
 Red. masses --      2.3867                 2.0328                 2.5785
 Frc consts  --      3.1397                 2.6798                 3.5978
 IR Inten    --     11.8652                 3.3460                 2.3935

                     85                     86                     87
                      A                      A                      A
 Frequencies --   1539.0961              1586.0626              1672.0008
 Red. masses --      2.5713                 6.9895                 6.4164
 Frc consts  --      3.5887                10.3594                10.5686
 IR Inten    --     19.5548               224.4916                 0.4024

                     88                     89                     90
                      A                      A                      A
 Frequencies --   1672.1790              1691.7673              1691.9030
 Red. masses --      6.4238                 6.4269                 6.4223
 Frc consts  --     10.5830                10.8376                10.8316
 IR Inten    --      0.4155                 6.9655                 0.0854

                     91                     92                     93
                      A                      A                      A
 Frequencies --   1728.3179              1745.1047              3101.5685
 Red. masses --     11.5495                10.8775                 1.0725
 Frc consts  --     20.3264                19.5175                 6.0784
 IR Inten    --    100.3724                49.5134                11.8599

                     94                     95                     96
                      A                      A                      A
 Frequencies --   3101.6318              3112.6594              3112.8891
 Red. masses --      1.0725                 1.0809                 1.0809
 Frc consts  --      6.0788                 6.1704                 6.1710
 IR Inten    --     16.0813                48.6017                 1.9188

                     97                     98                     99
                      A                      A                      A
 Frequencies --   3191.6244              3191.6892              3193.7179
 Red. masses --      1.1070                 1.1070                 1.0896
 Frc consts  --      6.6439                 6.6441                 6.5480
 IR Inten    --     13.5102                 9.5643                 2.6792

                    100                    101                    102
                      A                      A                      A
 Frequencies --   3193.7595              3201.3403              3201.3459
 Red. masses --      1.0896                 1.0877                 1.0877
 Frc consts  --      6.5481                 6.5679                 6.5679
 IR Inten    --      1.8085                 0.5808                 1.5378

                    103                    104                    105
                      A                      A                      A
 Frequencies --   3210.4278              3210.4580              3220.4231
 Red. masses --      1.0913                 1.0913                 1.0961
 Frc consts  --      6.6273                 6.6274                 6.6976
 IR Inten    --      3.0090                 2.6794                 4.1485

                    106                    107                    108
                      A                      A                      A
 Frequencies --   3220.4402              3229.6858              3229.7294
 Red. masses --      1.0961                 1.1007                 1.1007
 Frc consts  --      6.6977                 6.7646                 6.7648
 IR Inten    --     23.4478                16.8152                 4.8102

 - Thermochemistry -
 -------------------
 Temperature   298.150 Kelvin.  Pressure   1.00000 Atm.
 Atom     1 has atomic number  6 and mass  12.00000

 Molecular mass:   292.12118 amu.
 Principal axes and moments of inertia in atomic units:
                           1         2         3
     Eigenvalues --  2745.82187********************
           X            1.00000  -0.00000   0.00200
           Y            0.00000   1.00000   0.00003
           Z           -0.00200  -0.00003   1.00000
 This molecule is an asymmetric top.
 Rotational symmetry number  1.
 Warning -- assumption of classical behavior for rotation
           may cause significant error
 Rotational temperatures (Kelvin)      0.03154     0.00603     0.00577
 Rotational constants (GHZ):           0.65727     0.12562     0.12017
    2 imaginary frequencies ignored.
 Zero-point vibrational energy     811146.8 (Joules/Mol)
                                  193.86873 (Kcal/Mol)
 Warning -- explicit consideration of  22 degrees of freedom as
           vibrations may cause significant error
 Vibrational temperatures:     37.33    38.17    46.36   103.09   137.55
          (Kelvin)            196.24   217.31   297.19   367.37   376.54
                              419.41   426.36   524.58   540.44   598.64
                              598.79   616.45   639.57   771.08   779.84
                              783.81   868.68   906.85   906.99   946.09
                             1038.38  1038.64  1083.60  1102.16  1111.76
                             1132.26  1138.15  1188.86  1194.18  1240.64
                             1240.74  1322.55  1348.67  1354.71  1388.04
                             1390.94  1439.30  1439.32  1443.77  1448.41
                             1462.76  1464.29  1468.13  1474.50  1475.42
                             1487.31  1500.80  1526.85  1531.49  1535.11
                             1545.43  1607.55  1608.39  1684.58  1684.61
                             1719.55  1720.06  1734.70  1743.44  1773.33
                             1774.21  1799.99  1800.75  1829.01  1903.06
                             1905.89  1919.75  1963.97  1968.47  2012.72
                             2020.48  2021.08  2126.22  2136.06  2149.87
                             2152.14  2214.14  2214.42  2281.99  2405.64
                             2405.89  2434.08  2434.27  2486.66  2510.82
                             4462.47  4462.56  4478.42  4478.75  4592.04
                             4592.13  4595.05  4595.11  4606.01  4606.02
                             4619.09  4619.13  4633.47  4633.50  4646.80
                             4646.86

 Zero-point correction=                           0.308949 (Hartree/Particle)
 Thermal correction to Energy=                    0.324566
 Thermal correction to Enthalpy=                  0.325510
 Thermal correction to Gibbs Free Energy=         0.263265
 Sum of electronic and zero-point Energies=           -953.400728
 Sum of electronic and thermal Energies=              -953.385111
 Sum of electronic and thermal Enthalpies=            -953.384167
 Sum of electronic and thermal Free Energies=         -953.446412

                     E (Thermal)             CV                S
                      KCal/Mol        Cal/Mol-Kelvin    Cal/Mol-Kelvin
 Total                  203.668             63.527            131.007
 Electronic               0.000              0.000              0.000
 Translational            0.889              2.981             42.913
 Rotational               0.889              2.981             34.737
 Vibrational            201.891             57.565             53.356
 Vibration     1          0.593              1.985              6.118
 Vibration     2          0.593              1.984              6.073
 Vibration     3          0.594              1.983              5.688
 Vibration     4          0.598              1.968              4.107
 Vibration     5          0.603              1.952              3.542
 Vibration     6          0.614              1.917              2.854
 Vibration     7          0.618              1.902              2.659
 Vibration     8          0.641              1.831              2.074
 Vibration     9          0.666              1.754              1.693
 Vibration    10          0.669              1.743              1.650
 Vibration    11          0.687              1.690              1.465
 Vibration    12          0.690              1.681              1.438
 Vibration    13          0.738              1.545              1.102
 Vibration    14          0.746              1.522              1.057
 Vibration    15          0.779              1.435              0.905
 Vibration    16          0.779              1.435              0.905
 Vibration    17          0.790              1.408              0.864
 Vibration    18          0.804              1.373              0.813
 Vibration    19          0.891              1.171              0.574
 Vibration    20          0.897              1.157              0.561
 Vibration    21          0.900              1.151              0.555
 Vibration    22          0.962              1.024              0.443

 Normal termination of Gaussian 16 at Mon Jan 23 09:05:20 2023.
