 Gaussian 16, Revision A.03,
 Gaussian 16:  ES64L-G16RevA.03 25-Dec-2016

 ----------------------------------------------------------------------
 #p pop=(regular,nbo,savenbos) freq=noraman def2svp empiricaldispersion
 =gd3bj output=wfx pbe1pbe
 ----------------------------------------------------------------------

 ------
 10_sub
 ------
 Symbolic Z-matrix:
 Charge =  0 Multiplicity = 1

                         Standard orientation:
 ---------------------------------------------------------------------
 Center     Atomic      Atomic             Coordinates (Angstroms)
 Number     Number       Type             X           Y           Z
 ---------------------------------------------------------------------
      1          6           0       -2.815407    1.515216   -0.537720
      2          6           0       -2.706574   -0.020865   -0.361548
      3          1           0       -2.953659   -0.567236   -1.284913
      4          7           0       -1.286237   -0.204839   -0.116460
      5          6           0       -0.729047    0.942344   -0.107464
      6          8           0       -1.464854    2.012535   -0.310705
      7          6           0        0.729025    0.942307    0.107092
      8          7           0        1.286198   -0.204889    0.115617
      9          6           0        2.706458   -0.021084    0.361103
     10          1           0        2.953312   -0.567763    1.284343
     11          6           0        2.815351    1.514945    0.537823
     12          8           0        1.464799    2.012406    0.310957
     13          6           0        3.538392   -0.614942   -0.775985
     14          6           0        5.000395   -0.642390   -0.431191
     15          6           0        5.476806   -1.607351    0.466908
     16          6           0        6.817110   -1.623737    0.842018
     17          6           0        7.702667   -0.676354    0.325899
     18          6           0        7.240399    0.283536   -0.571355
     19          6           0        5.896663    0.299122   -0.946269
     20          6           0       -3.538209   -0.615096    0.775567
     21          6           0       -5.000285   -0.642469    0.431140
     22          6           0       -5.476901   -1.607248   -0.467064
     23          6           0       -6.817298   -1.623572   -0.841843
     24          6           0       -7.702744   -0.676324   -0.325288
     25          6           0       -7.240271    0.283375    0.572069
     26          6           0       -5.896442    0.298909    0.946651
     27          1           0       -3.475972    1.992443    0.199348
     28          1           0       -3.114927    1.828925   -1.546200
     29          1           0        3.475928    1.992399   -0.199086
     30          1           0        3.114856    1.828316    1.546413
     31          1           0        3.158848   -1.637620   -0.926489
     32          1           0        3.358679   -0.040213   -1.699078
     33          1           0        4.781252   -2.355852    0.859468
     34          1           0        7.175805   -2.386410    1.537448
     35          1           0        8.755175   -0.692104    0.618571
     36          1           0        7.929640    1.022383   -0.987430
     37          1           0        5.542648    1.045971   -1.663448
     38          1           0       -3.158574   -1.637818    0.925482
     39          1           0       -3.358237   -0.040726    1.698820
     40          1           0       -4.781411   -2.355647   -0.859954
     41          1           0       -7.176150   -2.386098   -1.537350
     42          1           0       -8.755324   -0.692025   -0.617708
     43          1           0       -7.929437    1.022108    0.988469
     44          1           0       -5.542270    1.045600    1.663910
 ---------------------------------------------------------------------

 SCF Done:  E(RPBE1PBE) =  -1032.19988491     A.U. after   14 cycles

 The electronic state is 1-A.
 Alpha  occ. eigenvalues --  -19.25719 -19.25710 -14.36422 -14.36415 -10.32522
 Alpha  occ. eigenvalues --  -10.32507 -10.29583 -10.29582 -10.27011 -10.27010
 Alpha  occ. eigenvalues --  -10.24833 -10.24833 -10.24236 -10.24236 -10.24223
 Alpha  occ. eigenvalues --  -10.24223 -10.24129 -10.24129 -10.24034 -10.24034
 Alpha  occ. eigenvalues --  -10.24013 -10.24013 -10.23918 -10.23917  -1.13656
 Alpha  occ. eigenvalues --   -1.12320  -0.94080  -0.91627  -0.88290  -0.88128
 Alpha  occ. eigenvalues --   -0.83365  -0.80940  -0.78473  -0.76465  -0.76463
 Alpha  occ. eigenvalues --   -0.76086  -0.71659  -0.70782  -0.66273  -0.63237
 Alpha  occ. eigenvalues --   -0.62956  -0.62376  -0.62110  -0.59706  -0.59346
 Alpha  occ. eigenvalues --   -0.56672  -0.54520  -0.53690  -0.53390  -0.51712
 Alpha  occ. eigenvalues --   -0.50676  -0.49052  -0.48450  -0.48054  -0.47787
 Alpha  occ. eigenvalues --   -0.47091  -0.46418  -0.45355  -0.43797  -0.43742
 Alpha  occ. eigenvalues --   -0.43637  -0.43024  -0.42250  -0.42031  -0.41235
 Alpha  occ. eigenvalues --   -0.40934  -0.39711  -0.39345  -0.37959  -0.37926
 Alpha  occ. eigenvalues --   -0.37480  -0.36432  -0.36303  -0.35508  -0.35414
 Alpha  occ. eigenvalues --   -0.35017  -0.34983  -0.29524  -0.27874  -0.27078
 Alpha  occ. eigenvalues --   -0.27062  -0.26400  -0.26170  -0.25804  -0.24211
 Alpha virt. eigenvalues --   -0.03173  -0.01008  -0.00801  -0.00630  -0.00521
 Alpha virt. eigenvalues --    0.06400   0.06485   0.08070   0.08386   0.08465
 Alpha virt. eigenvalues --    0.08615   0.10311   0.10348   0.10632   0.11236

 Mulliken charges:
               1
     1  C    0.250934
     2  C   -0.105616
     3  H    0.048664
     4  N   -0.201770
     5  C    0.141057
     6  O   -0.324072
     7  C    0.141052
     8  N   -0.201760
     9  C   -0.105595
    10  H    0.048665
    11  C    0.250924
    12  O   -0.324080
    13  C    0.110780
    14  C   -0.093477
    15  C   -0.024207
    16  C   -0.014346
    17  C   -0.018679
    18  C   -0.018010
    19  C   -0.029568
    20  C    0.110792
    21  C   -0.093470
    22  C   -0.024209
    23  C   -0.014343
    24  C   -0.018681
    25  C   -0.018011
    26  C   -0.029564
    27  H    0.044335
    28  H    0.058221
    29  H    0.044337
    30  H    0.058227
    31  H    0.056464
    32  H    0.023681
    33  H    0.017844
    34  H    0.022280
    35  H    0.022878
    36  H    0.021215
    37  H    0.011375
    38  H    0.056457
    39  H    0.023684
    40  H    0.017847
    41  H    0.022279
    42  H    0.022878
    43  H    0.021215
    44  H    0.011373
 Sum of Mulliken charges =  -0.00000

 Dipole moment (field-independent basis, Debye):
    X=              0.0001    Y=              0.9304    Z=              0.0005  Tot=              0.9304
 Quadrupole moment (field-independent basis, Debye-Ang):
   XX=           -114.7319   YY=           -140.9195   ZZ=           -136.8873
   XY=             -0.0003   XZ=              5.2952   YZ=             -0.0015

  Exact polarizability: 339.162   0.002 189.821  18.424   0.005 154.829
 Approx polarizability: 395.045   0.005 326.183  28.097   0.015 249.442

 Summary of Natural Population Analysis:

                                       Natural Population
                Natural  -----------------------------------------------
    Atom  No    Charge         Core      Valence    Rydberg      Total
 -----------------------------------------------------------------------
      C    1   -0.08485      1.99904     4.06741    0.01840     6.08485
      C    2   -0.07812      1.99902     4.05785    0.02125     6.07812
      H    3    0.23982      0.00000     0.75641    0.00377     0.76018
      N    4   -0.50691      1.99933     5.49083    0.01675     7.50691
      C    5    0.54116      1.99898     3.41791    0.04195     5.45884
      O    6   -0.54166      1.99965     6.53100    0.01101     8.54166
      C    7    0.54117      1.99898     3.41791    0.04195     5.45883
      N    8   -0.50691      1.99933     5.49083    0.01675     7.50691
      C    9   -0.07812      1.99902     4.05785    0.02125     6.07812
      H   10    0.23981      0.00000     0.75641    0.00378     0.76019
      C   11   -0.08485      1.99904     4.06741    0.01840     6.08485
      O   12   -0.54166      1.99965     6.53100    0.01101     8.54166
      C   13   -0.46435      1.99904     4.44532    0.01999     6.46435
      C   14   -0.04567      1.99887     4.02839    0.01841     6.04567
      C   15   -0.22940      1.99888     4.21492    0.01561     6.22940
      C   16   -0.21880      1.99895     4.20451    0.01534     6.21880
      C   17   -0.23518      1.99895     4.22117    0.01507     6.23518
      C   18   -0.21957      1.99894     4.20527    0.01536     6.21957
      C   19   -0.23420      1.99887     4.21993    0.01539     6.23420
      C   20   -0.46436      1.99904     4.44533    0.01999     6.46436
      C   21   -0.04567      1.99887     4.02839    0.01841     6.04567
      C   22   -0.22940      1.99888     4.21491    0.01561     6.22940
      C   23   -0.21880      1.99895     4.20452    0.01534     6.21880
      C   24   -0.23518      1.99895     4.22117    0.01507     6.23518
      C   25   -0.21956      1.99894     4.20527    0.01536     6.21956
      C   26   -0.23420      1.99887     4.21994    0.01539     6.23420
      H   27    0.21118      0.00000     0.78570    0.00312     0.78882
      H   28    0.21885      0.00000     0.77842    0.00273     0.78115
      H   29    0.21118      0.00000     0.78570    0.00312     0.78882
      H   30    0.21886      0.00000     0.77841    0.00273     0.78114
      H   31    0.25820      0.00000     0.73765    0.00415     0.74180
      H   32    0.23531      0.00000     0.76115    0.00354     0.76469
      H   33    0.23141      0.00000     0.76581    0.00277     0.76859
      H   34    0.23156      0.00000     0.76569    0.00275     0.76844
      H   35    0.23122      0.00000     0.76608    0.00271     0.76878
      H   36    0.23144      0.00000     0.76582    0.00273     0.76856
      H   37    0.22855      0.00000     0.76870    0.00274     0.77145
      H   38    0.25820      0.00000     0.73765    0.00415     0.74180
      H   39    0.23531      0.00000     0.76115    0.00353     0.76469
      H   40    0.23142      0.00000     0.76581    0.00277     0.76858
      H   41    0.23156      0.00000     0.76569    0.00275     0.76844
      H   42    0.23122      0.00000     0.76608    0.00271     0.76878
      H   43    0.23144      0.00000     0.76583    0.00273     0.76856
      H   44    0.22855      0.00000     0.76870    0.00274     0.77145
 =======================================================================
   * Total *   -0.00000     47.97704   121.51189    0.51107   170.00000

 ******    2 imaginary frequencies (negative Signs) ******

                      1                      2                      3
                      A                      A                      A
 Frequencies --    -96.9512               -71.7623                15.2479
 Red. masses --      7.6642                 6.7967                 5.4837
 Frc consts  --      0.0424                 0.0206                 0.0008
 IR Inten    --      0.2767                 0.5850                 0.0076

                      4                      5                      6
                      A                      A                      A
 Frequencies --     21.0674                23.9830                48.4826
 Red. masses --      3.6001                 4.6320                 4.0946
 Frc consts  --      0.0009                 0.0016                 0.0057
 IR Inten    --      0.0040                 0.0795                 0.0456

                      7                      8                      9
                      A                      A                      A
 Frequencies --     50.0291                80.2978                89.5769
 Red. masses --      4.4862                 4.2389                 3.6471
 Frc consts  --      0.0066                 0.0161                 0.0172
 IR Inten    --      0.0954                 0.0004                 0.3309

                     10                     11                     12
                      A                      A                      A
 Frequencies --     99.3357               115.4345               197.4191
 Red. masses --      5.1414                 3.5249                 3.8653
 Frc consts  --      0.0299                 0.0277                 0.0888
 IR Inten    --      0.7352                 1.9415                 2.4019

                     13                     14                     15
                      A                      A                      A
 Frequencies --    219.3040               223.6170               264.7216
 Red. masses --      4.5850                 4.0227                 6.8683
 Frc consts  --      0.1299                 0.1185                 0.2836
 IR Inten    --      0.8722                 5.1343                 0.1606

                     16                     17                     18
                      A                      A                      A
 Frequencies --    293.5557               354.1223               372.7325
 Red. masses --      4.6823                 3.0610                 2.5655
 Frc consts  --      0.2377                 0.2262                 0.2100
 IR Inten    --      2.2736                 1.0009                 0.0413

                     19                     20                     21
                      A                      A                      A
 Frequencies --    395.6752               410.3295               420.2041
 Red. masses --      2.0500                 2.4669                 2.8685
 Frc consts  --      0.1891                 0.2447                 0.2984
 IR Inten    --      0.8030                 0.0260                 0.0074

                     22                     23                     24
                      A                      A                      A
 Frequencies --    420.2926               461.5786               471.6183
 Red. masses --      2.8554                 7.5992                 5.9354
 Frc consts  --      0.2972                 0.9539                 0.7778
 IR Inten    --      0.0035                 0.0015                 9.5713

                     25                     26                     27
                      A                      A                      A
 Frequencies --    511.4286               525.2484               589.1884
 Red. masses --      3.3172                 2.8579                 4.6125
 Frc consts  --      0.5112                 0.4645                 0.9434
 IR Inten    --      5.1436                 7.0997                16.2866

                     28                     29                     30
                      A                      A                      A
 Frequencies --    604.5443               632.0502               632.9871
 Red. masses --      5.1013                 6.7128                 6.1858
 Frc consts  --      1.0985                 1.5800                 1.4603
 IR Inten    --      0.0002                20.2503                 0.0288

                     31                     32                     33
                      A                      A                      A
 Frequencies --    633.9983               726.3345               726.4296
 Red. masses --      6.5205                 1.7906                 1.6984
 Frc consts  --      1.5442                 0.5566                 0.5281
 IR Inten    --     26.5056                16.6523                44.3062

                     34                     35                     36
                      A                      A                      A
 Frequencies --    735.2549               740.8728               766.8073
 Red. masses --      2.6517                 2.8207                 7.3223
 Frc consts  --      0.8446                 0.9122                 2.5367
 IR Inten    --     33.3391                 9.5884                 4.2831

                     37                     38                     39
                      A                      A                      A
 Frequencies --    785.0283               789.4743               847.4523
 Red. masses --      2.7263                 2.9379                 3.6018
 Frc consts  --      0.9899                 1.0789                 1.5241
 IR Inten    --     11.0566                 0.1458                 2.5036

                     40                     41                     42
                      A                      A                      A
 Frequencies --    848.6152               866.9800               867.2263
 Red. masses --      3.4725                 1.3364                 1.2754
 Frc consts  --      1.4734                 0.5918                 0.5652
 IR Inten    --      0.0046                 0.5138                 0.1202

                     43                     44                     45
                      A                      A                      A
 Frequencies --    871.7089               874.9861               899.4275
 Red. masses --      2.7358                 2.8936                 1.4697
 Frc consts  --      1.2248                 1.3052                 0.7005
 IR Inten    --      2.0545                 3.2887                 0.0801

                     46                     47                     48
                      A                      A                      A
 Frequencies --    901.4274               925.4042               941.1060
 Red. masses --      1.4113                 2.9895                 1.5041
 Frc consts  --      0.6757                 1.5084                 0.7849
 IR Inten    --      0.0184                 3.7561                 0.0287

                     49                     50                     51
                      A                      A                      A
 Frequencies --    947.8463               972.7548               975.4816
 Red. masses --      1.9600                 6.6446                 7.8319
 Frc consts  --      1.0375                 3.7045                 4.3909
 IR Inten    --      5.2445                 2.6031               147.1912

                     52                     53                     54
                      A                      A                      A
 Frequencies --   1002.2897              1002.3261              1017.7020
 Red. masses --      1.3775                 1.3762                 5.4865
 Frc consts  --      0.8153                 0.8146                 3.3480
 IR Inten    --      0.0013                 0.0150                 0.0516

                     55                     56                     57
                      A                      A                      A
 Frequencies --   1017.7273              1025.1269              1025.2458
 Red. masses --      5.5246                 1.3413                 1.3226
 Frc consts  --      3.3714                 0.8305                 0.8191
 IR Inten    --      0.9971                 0.0031                 0.0390

                     58                     59                     60
                      A                      A                      A
 Frequencies --   1028.9116              1047.9489              1061.6086
 Red. masses --      2.7975                 1.8081                 2.0402
 Frc consts  --      1.7449                 1.1699                 1.3547
 IR Inten    --      0.6981                 5.6102                 7.9867

                     61                     62                     63
                      A                      A                      A
 Frequencies --   1061.6111              1063.5830              1083.0723
 Red. masses --      2.0468                 2.7075                 3.8455
 Frc consts  --      1.3591                 1.8045                 2.6578
 IR Inten    --      0.2887                14.4927                 2.7147

                     64                     65                     66
                      A                      A                      A
 Frequencies --   1088.5308              1107.2838              1107.4779
 Red. masses --      3.9911                 1.5418                 1.5763
 Frc consts  --      2.7863                 1.1138                 1.1391
 IR Inten    --     22.5765                 3.0007                 0.0624

                     67                     68                     69
                      A                      A                      A
 Frequencies --   1134.0822              1135.8802              1169.9528
 Red. masses --      1.8888                 1.9412                 1.0738
 Frc consts  --      1.4312                 1.4757                 0.8660
 IR Inten    --     16.0848                20.3622                 0.0317

                     70                     71                     72
                      A                      A                      A
 Frequencies --   1169.9551              1185.5085              1185.7949
 Red. masses --      1.0738                 1.2137                 1.2138
 Frc consts  --      0.8660                 1.0050                 1.0056
 IR Inten    --      0.1169                 0.0559                 1.1380

                     73                     74                     75
                      A                      A                      A
 Frequencies --   1190.9339              1190.9968              1230.2740
 Red. masses --      1.1131                 1.1127                 1.5678
 Frc consts  --      0.9301                 0.9299                 1.3981
 IR Inten    --      0.0428                 0.2644                 4.8896

                     76                     77                     78
                      A                      A                      A
 Frequencies --   1230.5654              1234.9076              1235.6626
 Red. masses --      1.5612                 1.3084                 1.2996
 Frc consts  --      1.3929                 1.1756                 1.1691
 IR Inten    --      4.3292                 6.8957                 0.1057

                     79                     80                     81
                      A                      A                      A
 Frequencies --   1259.6911              1266.8629              1269.9407
 Red. masses --      1.6962                 1.5813                 1.6336
 Frc consts  --      1.5858                 1.4952                 1.5523
 IR Inten    --     42.0490                11.3111                81.5574

                     82                     83                     84
                      A                      A                      A
 Frequencies --   1313.0213              1329.4056              1335.5188
 Red. masses --      1.4788                 1.8305                 1.3615
 Frc consts  --      1.5021                 1.9061                 1.4308
 IR Inten    --     14.8346                40.2907                 0.0094

                     85                     86                     87
                      A                      A                      A
 Frequencies --   1336.2436              1344.4883              1374.0721
 Red. masses --      1.3198                 1.5319                 1.6066
 Frc consts  --      1.3885                 1.6316                 1.7873
 IR Inten    --      1.3399                 1.3522                 4.7375

                     88                     89                     90
                      A                      A                      A
 Frequencies --   1378.6925              1401.6236              1401.6850
 Red. masses --      1.6532                 6.2647                 6.4812
 Frc consts  --      1.8514                 7.2512                 7.5025
 IR Inten    --     14.4322                 2.3051                 0.2714

                     91                     92                     93
                      A                      A                      A
 Frequencies --   1409.5538              1456.3635              1457.2171
 Red. masses --      2.6649                 1.1173                 1.1237
 Frc consts  --      3.1196                 1.3963                 1.4059
 IR Inten    --    177.2220                 0.1600                11.7242

                     94                     95                     96
                      A                      A                      A
 Frequencies --   1478.6278              1485.0327              1493.2010
 Red. masses --      1.1136                 1.1361                 2.4806
 Frc consts  --      1.4345                 1.4762                 3.2587
 IR Inten    --      0.5993                15.1054                 5.8341

                     97                     98                     99
                      A                      A                      A
 Frequencies --   1493.2028              1539.6819              1539.7125
 Red. masses --      2.4806                 2.6839                 2.6852
 Frc consts  --      3.2587                 3.7487                 3.7507
 IR Inten    --      7.7520                37.5973                 1.1485

                    100                    101                    102
                      A                      A                      A
 Frequencies --   1593.0228              1669.5069              1669.5228
 Red. masses --      7.8100                 6.3829                 6.3827
 Frc consts  --     11.6774                10.4820                10.4819
 IR Inten    --    219.5773                 0.8040                 1.8588

                    103                    104                    105
                      A                      A                      A
 Frequencies --   1693.4301              1693.6173              1735.0227
 Red. masses --      6.5146                 6.5134                11.4735
 Frc consts  --     11.0070                11.0074                20.3496
 IR Inten    --     21.0897                 0.5470               124.7515

                    106                    107                    108
                      A                      A                      A
 Frequencies --   1753.6612              3067.6081              3067.6893
 Red. masses --     10.9771                 1.0617                 1.0617
 Frc consts  --     19.8898                 5.8863                 5.8865
 IR Inten    --     30.2095                 9.6801                 8.2395

                    109                    110                    111
                      A                      A                      A
 Frequencies --   3089.9243              3089.9426              3106.6500
 Red. masses --      1.0860                 1.0860                 1.0607
 Frc consts  --      6.1092                 6.1090                 6.0318
 IR Inten    --     18.1565                12.8845                34.9434

                    112                    113                    114
                      A                      A                      A
 Frequencies --   3106.9469              3138.0234              3138.1183
 Red. masses --      1.0609                 1.1073                 1.1073
 Frc consts  --      6.0336                 6.4243                 6.4247
 IR Inten    --     11.6783                 6.8307                 7.3708

                    115                    116                    117
                      A                      A                      A
 Frequencies --   3176.4746              3176.5482              3189.4864
 Red. masses --      1.1129                 1.1129                 1.0891
 Frc consts  --      6.6162                 6.6165                 6.5279
 IR Inten    --      0.2695                20.7446                 8.3430

                    118                    119                    120
                      A                      A                      A
 Frequencies --   3189.5299              3191.2577              3191.2758
 Red. masses --      1.0891                 1.0900                 1.0900
 Frc consts  --      6.5279                 6.5404                 6.5403
 IR Inten    --      5.2874                 4.6422                 4.6379

                    121                    122                    123
                      A                      A                      A
 Frequencies --   3207.5174              3207.5227              3217.3575
 Red. masses --      1.0903                 1.0903                 1.0957
 Frc consts  --      6.6087                 6.6088                 6.6825
 IR Inten    --      1.7795                 1.3826                13.3396

                    124                    125                    126
                      A                      A                      A
 Frequencies --   3217.3631              3228.2721              3228.2900
 Red. masses --      1.0957                 1.1005                 1.1005
 Frc consts  --      6.6825                 6.7577                 6.7578
 IR Inten    --     14.8868                21.1520                 0.2268

 - Thermochemistry -
 -------------------
 Temperature   298.150 Kelvin.  Pressure   1.00000 Atm.
 Atom     1 has atomic number  6 and mass  12.00000

 Molecular mass:   320.15248 amu.
 Principal axes and moments of inertia in atomic units:
                           1         2         3
     Eigenvalues --  1901.06877********************
           X            1.00000   0.00000   0.00077
           Y           -0.00000   1.00000   0.00000
           Z           -0.00077  -0.00000   1.00000
 This molecule is an asymmetric top.
 Rotational symmetry number  1.
 Warning -- assumption of classical behavior for rotation
           may cause significant error
 Rotational temperatures (Kelvin)      0.04556     0.00325     0.00313
 Rotational constants (GHZ):           0.94933     0.06774     0.06514
    2 imaginary frequencies ignored.
 Zero-point vibrational energy     960727.3 (Joules/Mol)
                                  229.61935 (Kcal/Mol)
 Warning -- explicit consideration of  26 degrees of freedom as
           vibrations may cause significant error
 Vibrational temperatures:     21.94    30.31    34.51    69.76    71.98
          (Kelvin)            115.53   128.88   142.92   166.08   284.04
                              315.53   321.73   380.88   422.36   509.50
                              536.28   569.29   590.37   604.58   604.71
                              664.11   678.55   735.83   755.72   847.71
                              869.80   909.38   910.73   912.18  1045.03
                             1045.17  1057.87  1065.95  1103.26  1129.48
                             1135.88  1219.29  1220.97  1247.39  1247.75
                             1254.19  1258.91  1294.08  1296.95  1331.45
                             1354.04  1363.74  1399.58  1403.50  1442.07
                             1442.12  1464.25  1464.28  1474.93  1475.10
                             1480.37  1507.76  1527.42  1527.42  1530.26
                             1558.30  1566.15  1593.13  1593.41  1631.69
                             1634.28  1683.30  1683.30  1705.68  1706.09
                             1713.49  1713.58  1770.09  1770.51  1776.76
                             1777.84  1812.41  1822.73  1827.16  1889.14
                             1912.72  1921.51  1922.56  1934.42  1976.98
                             1983.63  2016.62  2016.71  2028.03  2095.38
                             2096.61  2127.42  2136.63  2148.38  2148.39
                             2215.26  2215.30  2292.00  2402.05  2402.07
                             2436.47  2436.74  2496.31  2523.13  4413.60
                             4413.72  4445.71  4445.74  4469.78  4470.20
                             4514.92  4515.05  4570.24  4570.34  4588.96
                             4589.02  4591.51  4591.53  4614.90  4614.91
                             4629.06  4629.07  4644.76  4644.79

 Zero-point correction=                           0.365922 (Hartree/Particle)
 Thermal correction to Energy=                    0.384379
 Thermal correction to Enthalpy=                  0.385323
 Thermal correction to Gibbs Free Energy=         0.314908
 Sum of electronic and zero-point Energies=          -1031.833963
 Sum of electronic and thermal Energies=             -1031.815506
 Sum of electronic and thermal Enthalpies=           -1031.814561
 Sum of electronic and thermal Free Energies=        -1031.884977

                     E (Thermal)             CV                S
                      KCal/Mol        Cal/Mol-Kelvin    Cal/Mol-Kelvin
 Total                  241.202             73.131            148.201
 Electronic               0.000              0.000              0.000
 Translational            0.889              2.981             43.187
 Rotational               0.889              2.981             35.594
 Vibrational            239.424             67.169             69.421
 Vibration     1          0.593              1.986              7.173
 Vibration     2          0.593              1.985              6.531
 Vibration     3          0.593              1.985              6.274
 Vibration     4          0.595              1.978              4.878
 Vibration     5          0.595              1.978              4.816
 Vibration     6          0.600              1.963              3.884
 Vibration     7          0.602              1.957              3.669
 Vibration     8          0.604              1.950              3.467
 Vibration     9          0.608              1.937              3.175
 Vibration    10          0.637              1.843              2.157
 Vibration    11          0.647              1.812              1.965
 Vibration    12          0.649              1.805              1.930
 Vibration    13          0.671              1.738              1.630
 Vibration    14          0.688              1.686              1.453
 Vibration    15          0.730              1.567              1.148
 Vibration    16          0.744              1.528              1.069
 Vibration    17          0.762              1.479              0.979
 Vibration    18          0.774              1.448              0.925
 Vibration    19          0.783              1.426              0.891
 Vibration    20          0.783              1.426              0.891
 Vibration    21          0.819              1.335              0.762
 Vibration    22          0.829              1.313              0.733
 Vibration    23          0.867              1.225              0.630
 Vibration    24          0.880              1.194              0.598
 Vibration    25          0.946              1.055              0.469
 Vibration    26          0.963              1.022              0.442

 Normal termination of Gaussian 16 at Mon Jan 23 09:12:41 2023.
