 Gaussian 16, Revision A.03,
 Gaussian 16:  ES64L-G16RevA.03 25-Dec-2016

 ----------------------------------------------------------------------
 #p pop=(regular,nbo,savenbos) freq=noraman def2svp empiricaldispersion
 =gd3bj output=wfx pbe1pbe
 ----------------------------------------------------------------------

 ------
 26_sub
 ------
 Symbolic Z-matrix:
 Charge =  0 Multiplicity = 1

                         Standard orientation:
 ---------------------------------------------------------------------
 Center     Atomic      Atomic             Coordinates (Angstroms)
 Number     Number       Type             X           Y           Z
 ---------------------------------------------------------------------
      1          6           0       -2.774797    1.091452   -0.777955
      2          6           0       -2.815712   -0.464183   -0.664557
      3          1           0       -3.204298   -0.919480   -1.590723
      4          7           0       -1.412430   -0.859359   -0.507093
      5          6           0       -0.768031    0.215922   -0.273802
      6          7           0       -1.459910    1.391996   -0.227865
      7          6           0       -0.745596    2.636613   -0.377376
      8          6           0        0.497995    2.632396    0.513197
      9          7           0        1.249402    1.417260    0.315474
     10          6           0        0.665375    0.250184   -0.008687
     11          7           0        1.413749   -0.791610   -0.026011
     12          6           0        2.733730   -0.406329    0.476560
     13          1           0        2.844314   -0.897389    1.461035
     14          6           0        2.639821    1.145232    0.649855
     15          6           0        3.887128   -0.869463   -0.413809
     16          6           0        5.218442   -0.477708    0.218731
     17          6           0        3.816544   -2.368801   -0.674048
     18          6           0       -3.668328   -0.971342    0.511014
     19          6           0       -5.145426   -0.696573    0.252476
     20          6           0       -3.421680   -2.450529    0.779450
     21          1           0       -3.573749    1.583195   -0.203040
     22          1           0       -2.842545    1.432643   -1.828277
     23          1           0       -1.395484    3.470466   -0.073959
     24          1           0       -0.453200    2.810834   -1.433372
     25          1           0        0.201320    2.741743    1.573826
     26          1           0        1.128744    3.496659    0.253911
     27          1           0        3.315809    1.678738   -0.041637
     28          1           0        2.873521    1.471981    1.675783
     29          1           0        3.781860   -0.341949   -1.380456
     30          1           0        5.351113   -0.985144    1.188645
     31          1           0        5.305919    0.606792    0.392050
     32          1           0        6.057210   -0.774733   -0.427770
     33          1           0        3.773711   -2.931088    0.273707
     34          1           0        4.709635   -2.704655   -1.222444
     35          1           0        2.936158   -2.639402   -1.275718
     36          1           0       -3.352039   -0.400959    1.404893
     37          1           0       -5.499327   -1.270330   -0.620117
     38          1           0       -5.357286    0.367314    0.061191
     39          1           0       -5.753367   -1.001332    1.117239
     40          1           0       -3.619175   -3.050967   -0.124262
     41          1           0       -4.093994   -2.811199    1.572874
     42          1           0       -2.387310   -2.640980    1.098786
 ---------------------------------------------------------------------

 SCF Done:  E(RPBE1PBE) =  -765.535809995     A.U. after   15 cycles

 The electronic state is 1-A.
 Alpha  occ. eigenvalues --  -14.41658 -14.41602 -14.35056 -14.34172 -10.28924
 Alpha  occ. eigenvalues --  -10.28851 -10.28842 -10.28656 -10.26937 -10.26912
 Alpha  occ. eigenvalues --  -10.25501 -10.25310 -10.23014 -10.22880 -10.22153
 Alpha  occ. eigenvalues --  -10.22127 -10.20702 -10.20696  -1.03750  -1.00242
 Alpha  occ. eigenvalues --   -0.91533  -0.87837  -0.82584  -0.81017  -0.79105
 Alpha  occ. eigenvalues --   -0.75898  -0.73321  -0.68810  -0.68796  -0.67288
 Alpha  occ. eigenvalues --   -0.65061  -0.62496  -0.62376  -0.57266  -0.56824
 Alpha  occ. eigenvalues --   -0.55412  -0.53953  -0.49999  -0.49657  -0.48972
 Alpha  occ. eigenvalues --   -0.48437  -0.46503  -0.46110  -0.45410  -0.44313
 Alpha  occ. eigenvalues --   -0.43393  -0.42739  -0.42019  -0.40713  -0.40271
 Alpha  occ. eigenvalues --   -0.39608  -0.38865  -0.38698  -0.38438  -0.37948
 Alpha  occ. eigenvalues --   -0.37746  -0.37052  -0.34301  -0.34190  -0.34112
 Alpha  occ. eigenvalues --   -0.33566  -0.32882  -0.32798  -0.31150  -0.26569
 Alpha  occ. eigenvalues --   -0.25286  -0.22810  -0.20776
 Alpha virt. eigenvalues --   -0.01656   0.05181   0.07028   0.07367   0.08737
 Alpha virt. eigenvalues --    0.09403   0.09593   0.10386   0.10589   0.11392
 Alpha virt. eigenvalues --    0.11918   0.12239   0.12645   0.13451   0.13862

 Mulliken charges:
               1
     1  C    0.207044
     2  C   -0.047534
     3  H    0.030306
     4  N   -0.185289
     5  C    0.112808
     6  N   -0.437817
     7  C    0.101830
     8  C    0.143773
     9  N   -0.449308
    10  C    0.134698
    11  N   -0.209950
    12  C   -0.047388
    13  H    0.034526
    14  C    0.224792
    15  C   -0.169274
    16  C   -0.033343
    17  C   -0.008412
    18  C   -0.162812
    19  C   -0.029404
    20  C   -0.005748
    21  H    0.030701
    22  H    0.030375
    23  H    0.047224
    24  H    0.039691
    25  H    0.041995
    26  H    0.044170
    27  H    0.029918
    28  H    0.034522
    29  H    0.023144
    30  H    0.033926
    31  H    0.031169
    32  H    0.040997
    33  H    0.029572
    34  H    0.026797
    35  H    0.062848
    36  H    0.024304
    37  H    0.034423
    38  H    0.027679
    39  H    0.041535
    40  H    0.030260
    41  H    0.026987
    42  H    0.064266
 Sum of Mulliken charges =  -0.00000

 Dipole moment (field-independent basis, Debye):
    X=             -0.2269    Y=              5.1260    Z=              0.5729  Tot=              5.1629
 Quadrupole moment (field-independent basis, Debye-Ang):
   XX=           -103.0362   YY=           -107.6932   ZZ=           -109.5203
   XY=             -0.0166   XZ=              2.5502   YZ=             -1.1810

  Exact polarizability: 221.129  -0.299 180.408   5.151   1.146 132.867
 Approx polarizability: 249.924  -1.073 263.972   7.504   6.141 201.429

 Summary of Natural Population Analysis:

                                       Natural Population
                Natural  -----------------------------------------------
    Atom  No    Charge         Core      Valence    Rydberg      Total
 -----------------------------------------------------------------------
      C    1   -0.22606      1.99917     4.20799    0.01890     6.22606
      C    2   -0.06141      1.99897     4.03675    0.02569     6.06141
      H    3    0.23517      0.00000     0.76103    0.00381     0.76483
      N    4   -0.50234      1.99934     5.48592    0.01708     7.50234
      C    5    0.42352      1.99904     3.54129    0.03615     5.57648
      N    6   -0.53207      1.99907     5.52014    0.01286     7.53207
      C    7   -0.21989      1.99919     4.20384    0.01686     6.21989
      C    8   -0.21436      1.99920     4.19834    0.01682     6.21436
      N    9   -0.51523      1.99902     5.50406    0.01216     7.51523
      C   10    0.42432      1.99902     3.54114    0.03551     5.57568
      N   11   -0.52631      1.99932     5.51006    0.01693     7.52631
      C   12   -0.05779      1.99899     4.03458    0.02422     6.05779
      H   13    0.23003      0.00000     0.76529    0.00467     0.76997
      C   14   -0.22692      1.99918     4.21018    0.01756     6.22692
      C   15   -0.25987      1.99897     4.24526    0.01564     6.25987
      C   16   -0.65237      1.99922     4.64244    0.01071     6.65237
      C   17   -0.64923      1.99923     4.63818    0.01182     6.64923
      C   18   -0.26351      1.99898     4.24829    0.01625     6.26351
      C   19   -0.65102      1.99922     4.64102    0.01078     6.65102
      C   20   -0.64985      1.99922     4.63887    0.01175     6.64985
      H   21    0.22061      0.00000     0.77657    0.00283     0.77939
      H   22    0.21028      0.00000     0.78557    0.00415     0.78972
      H   23    0.23598      0.00000     0.76105    0.00297     0.76402
      H   24    0.20550      0.00000     0.78886    0.00564     0.79450
      H   25    0.21007      0.00000     0.78462    0.00531     0.78993
      H   26    0.23218      0.00000     0.76468    0.00314     0.76782
      H   27    0.21051      0.00000     0.78592    0.00357     0.78949
      H   28    0.21925      0.00000     0.77769    0.00305     0.78075
      H   29    0.23003      0.00000     0.76473    0.00524     0.76997
      H   30    0.21797      0.00000     0.77891    0.00312     0.78203
      H   31    0.21737      0.00000     0.78015    0.00248     0.78263
      H   32    0.22837      0.00000     0.76912    0.00251     0.77163
      H   33    0.21733      0.00000     0.77979    0.00288     0.78267
      H   34    0.21728      0.00000     0.78018    0.00254     0.78272
      H   35    0.24659      0.00000     0.75055    0.00286     0.75341
      H   36    0.23007      0.00000     0.76526    0.00467     0.76993
      H   37    0.21834      0.00000     0.77854    0.00312     0.78166
      H   38    0.21628      0.00000     0.78125    0.00247     0.78372
      H   39    0.22851      0.00000     0.76897    0.00251     0.77149
      H   40    0.21774      0.00000     0.77933    0.00294     0.78226
      H   41    0.21732      0.00000     0.78012    0.00256     0.78268
      H   42    0.24762      0.00000     0.74956    0.00282     0.75238
 =======================================================================
   * Total *    0.00000     35.98436    99.60612    0.40952   136.00000

 ******    1 imaginary frequencies (negative Signs) ******

                      1                      2                      3
                      A                      A                      A
 Frequencies --    -93.7212                28.0379                32.7689
 Red. masses --      4.6909                 3.3948                 3.4440
 Frc consts  --      0.0243                 0.0016                 0.0022
 IR Inten    --      0.5030                 2.2876                 0.6187

                      4                      5                      6
                      A                      A                      A
 Frequencies --     73.7565                77.4912                86.9755
 Red. masses --      2.6398                 2.7827                 3.3221
 Frc consts  --      0.0085                 0.0098                 0.0148
 IR Inten    --      0.0136                 0.2097                 1.7233

                      7                      8                      9
                      A                      A                      A
 Frequencies --    102.8546               142.7547               189.8931
 Red. masses --      2.8374                 3.6853                 3.0332
 Frc consts  --      0.0177                 0.0442                 0.0644
 IR Inten    --      0.0490                 1.3371                 2.4676

                     10                     11                     12
                      A                      A                      A
 Frequencies --    215.0715               216.9465               219.7945
 Red. masses --      1.6612                 1.2524                 1.0683
 Frc consts  --      0.0453                 0.0347                 0.0304
 IR Inten    --      0.5391                 1.4011                 0.8943

                     13                     14                     15
                      A                      A                      A
 Frequencies --    241.6078               244.2641               249.4900
 Red. masses --      1.1888                 1.3128                 2.4156
 Frc consts  --      0.0409                 0.0461                 0.0886
 IR Inten    --      0.2517                 0.1564                 0.3291

                     16                     17                     18
                      A                      A                      A
 Frequencies --    276.1441               295.7373               316.8340
 Red. masses --      1.9254                 2.6443                 2.6530
 Frc consts  --      0.0865                 0.1363                 0.1569
 IR Inten    --      2.5875                 0.5758                 1.0987

                     19                     20                     21
                      A                      A                      A
 Frequencies --    358.2398               383.6005               391.0972
 Red. masses --      2.2434                 2.8380                 3.2038
 Frc consts  --      0.1696                 0.2460                 0.2887
 IR Inten    --      0.3831                 0.0511                 0.4371

                     22                     23                     24
                      A                      A                      A
 Frequencies --    428.0375               431.3358               467.3414
 Red. masses --      2.5528                 2.6725                 3.1355
 Frc consts  --      0.2756                 0.2930                 0.4035
 IR Inten    --      0.3357                 0.6058                 0.1274

                     25                     26                     27
                      A                      A                      A
 Frequencies --    497.1317               534.7236               554.4955
 Red. masses --      3.8616                 4.9582                 3.0293
 Frc consts  --      0.5623                 0.8353                 0.5488
 IR Inten    --      4.3631                 4.5814                 6.5555

                     28                     29                     30
                      A                      A                      A
 Frequencies --    603.3006               680.8332               719.7647
 Red. masses --      5.0277                 4.1549                 2.6419
 Frc consts  --      1.0782                 1.1347                 0.8064
 IR Inten    --     11.2607                 1.7253                 9.6867

                     31                     32                     33
                      A                      A                      A
 Frequencies --    750.8086               788.0965               806.8231
 Red. masses --      7.4409                 2.7409                 2.2208
 Frc consts  --      2.4713                 1.0030                 0.8517
 IR Inten    --      1.7270                 2.9874                 5.3469

                     34                     35                     36
                      A                      A                      A
 Frequencies --    839.1028               856.9488               912.1023
 Red. masses --      3.8844                 4.1999                 1.9014
 Frc consts  --      1.6114                 1.8172                 0.9320
 IR Inten    --      1.6339                 4.4571                 1.5271

                     37                     38                     39
                      A                      A                      A
 Frequencies --    914.6718               921.2707               931.5387
 Red. masses --      1.7867                 2.5208                 1.2790
 Frc consts  --      0.8807                 1.2606                 0.6539
 IR Inten    --      0.4756                 2.2276                 0.7134

                     40                     41                     42
                      A                      A                      A
 Frequencies --    932.7794               961.4217               963.9075
 Red. masses --      1.3133                 1.4854                 1.4251
 Frc consts  --      0.6732                 0.8089                 0.7801
 IR Inten    --      1.6210                 2.5240                 5.3695

                     43                     44                     45
                      A                      A                      A
 Frequencies --    971.3222               974.3205               985.9643
 Red. masses --      1.3240                 1.4949                 1.9373
 Frc consts  --      0.7360                 0.8361                 1.1096
 IR Inten    --      6.5493                 4.0869                 0.7390

                     46                     47                     48
                      A                      A                      A
 Frequencies --   1010.0575              1023.7559              1046.7342
 Red. masses --      2.5530                 2.3943                 2.6398
 Frc consts  --      1.5346                 1.4785                 1.7041
 IR Inten    --      4.2488                 4.9699                16.9263

                     49                     50                     51
                      A                      A                      A
 Frequencies --   1074.9388              1094.2210              1118.8459
 Red. masses --      3.0914                 1.8396                 3.7644
 Frc consts  --      2.1046                 1.2977                 2.7765
 IR Inten    --      9.4203                 3.5519                37.2468

                     52                     53                     54
                      A                      A                      A
 Frequencies --   1129.8966              1156.3917              1159.5962
 Red. masses --      3.9072                 1.9526                 1.8927
 Frc consts  --      2.9390                 1.5384                 1.4995
 IR Inten    --      4.9414                 4.0854                 0.8685

                     55                     56                     57
                      A                      A                      A
 Frequencies --   1161.9353              1167.4828              1188.0536
 Red. masses --      1.8389                 1.8620                 1.6010
 Frc consts  --      1.4628                 1.4953                 1.3314
 IR Inten    --      1.4666                 5.2931                10.7780

                     58                     59                     60
                      A                      A                      A
 Frequencies --   1191.1498              1214.5720              1218.9896
 Red. masses --      1.4306                 1.4312                 1.5125
 Frc consts  --      1.1960                 1.2440                 1.3242
 IR Inten    --      1.8054                33.3891                 4.2670

                     61                     62                     63
                      A                      A                      A
 Frequencies --   1228.7988              1258.2486              1272.8567
 Red. masses --      1.3805                 1.3497                 1.3419
 Frc consts  --      1.2281                 1.2590                 1.2809
 IR Inten    --     16.1007                 4.0569                22.0399

                     64                     65                     66
                      A                      A                      A
 Frequencies --   1279.9740              1281.9211              1286.5355
 Red. masses --      1.4993                 1.3894                 1.4807
 Frc consts  --      1.4472                 1.3453                 1.4440
 IR Inten    --      0.9280                42.1356                38.1341

                     67                     68                     69
                      A                      A                      A
 Frequencies --   1293.6111              1297.5985              1312.4279
 Red. masses --      1.5268                 1.5362                 1.4269
 Frc consts  --      1.5054                 1.5240                 1.4481
 IR Inten    --      3.6876                20.1731                 1.5249

                     70                     71                     72
                      A                      A                      A
 Frequencies --   1335.3113              1337.6047              1356.9781
 Red. masses --      1.3732                 1.3729                 2.2648
 Frc consts  --      1.4427                 1.4473                 2.4571
 IR Inten    --      3.9339                 1.5071                 3.1439

                     73                     74                     75
                      A                      A                      A
 Frequencies --   1376.6849              1378.3255              1385.3681
 Red. masses --      1.6676                 2.1918                 1.7904
 Frc consts  --      1.8621                 2.4533                 2.0246
 IR Inten    --      2.4700                56.2753                11.2526

                     76                     77                     78
                      A                      A                      A
 Frequencies --   1388.5593              1390.0167              1394.9566
 Red. masses --      1.5736                 1.5176                 1.7102
 Frc consts  --      1.7876                 1.7276                 1.9607
 IR Inten    --     76.3140                 5.9893                52.4254

                     79                     80                     81
                      A                      A                      A
 Frequencies --   1399.1250              1399.4666              1454.9011
 Red. masses --      1.2758                 1.3055                 1.0818
 Frc consts  --      1.4715                 1.5064                 1.3492
 IR Inten    --      9.0969                 1.6967                 2.9065

                     82                     83                     84
                      A                      A                      A
 Frequencies --   1455.6818              1457.7069              1459.0254
 Red. masses --      1.0524                 1.2659                 1.0504
 Frc consts  --      1.3139                 1.5849                 1.3174
 IR Inten    --      0.6496                 5.0029                 1.8218

                     85                     86                     87
                      A                      A                      A
 Frequencies --   1459.1570              1472.6199              1473.8233
 Red. masses --      1.1583                 1.0656                 1.0584
 Frc consts  --      1.4531                 1.3616                 1.3545
 IR Inten    --      2.5015                 7.3075                 9.3075

                     88                     89                     90
                      A                      A                      A
 Frequencies --   1476.2929              1478.6409              1481.3350
 Red. masses --      1.1152                 1.0963                 1.0801
 Frc consts  --      1.4320                 1.4122                 1.3964
 IR Inten    --     13.0262                 4.2508                11.5869

                     91                     92                     93
                      A                      A                      A
 Frequencies --   1482.5502              1484.0229              1523.5890
 Red. masses --      1.0901                 1.1354                 1.9967
 Frc consts  --      1.4116                 1.4733                 2.7309
 IR Inten    --     12.8681                13.8735                50.2636

                     94                     95                     96
                      A                      A                      A
 Frequencies --   1629.6207              1753.5945              1786.6969
 Red. masses --      5.7102                10.6069                11.3214
 Frc consts  --      8.9346                19.2175                21.2938
 IR Inten    --    320.6784               117.5379                78.8134

                     97                     98                     99
                      A                      A                      A
 Frequencies --   2995.4233              3020.3323              3022.3259
 Red. masses --      1.0728                 1.0688                 1.0690
 Frc consts  --      5.6712                 5.7444                 5.7533
 IR Inten    --     62.2983                67.3283                48.9831

                    100                    101                    102
                      A                      A                      A
 Frequencies --   3028.3504              3035.2460              3037.4342
 Red. masses --      1.0822                 1.0843                 1.0633
 Frc consts  --      5.8474                 5.8858                 5.7800
 IR Inten    --      5.9302                 5.7709                47.2319

                    103                    104                    105
                      A                      A                      A
 Frequencies --   3044.0216              3047.0203              3047.2210
 Red. masses --      1.0851                 1.0386                 1.0379
 Frc consts  --      5.9238                 5.6813                 5.6782
 IR Inten    --     24.7080                29.0945                20.6556

                    106                    107                    108
                      A                      A                      A
 Frequencies --   3051.4476              3051.7330              3075.4481
 Red. masses --      1.0404                 1.0391                 1.0871
 Frc consts  --      5.7079                 5.7015                 6.0582
 IR Inten    --     37.2794                28.7519                49.1191

                    109                    110                    111
                      A                      A                      A
 Frequencies --   3099.0313              3113.9294              3116.5956
 Red. masses --      1.1063                 1.0986                 1.0997
 Frc consts  --      6.2599                 6.2761                 6.2934
 IR Inten    --     33.9055                22.2380                26.4593

                    112                    113                    114
                      A                      A                      A
 Frequencies --   3125.7361              3135.9257              3136.6981
 Red. masses --      1.0954                 1.1029                 1.1027
 Frc consts  --      6.3056                 6.3905                 6.3925
 IR Inten    --     17.7245                20.5706                17.4144

                    115                    116                    117
                      A                      A                      A
 Frequencies --   3139.1986              3140.2548              3149.7113
 Red. masses --      1.1026                 1.1027                 1.1026
 Frc consts  --      6.4017                 6.4070                 6.4449
 IR Inten    --     28.9823                23.0869                27.8591

                    118                    119                    120
                      A                      A                      A
 Frequencies --   3150.9330              3161.8364              3169.1835
 Red. masses --      1.1025                 1.1033                 1.1030
 Frc consts  --      6.4491                 6.4985                 6.5270
 IR Inten    --     30.7877                10.8436                10.1513

 - Thermochemistry -
 -------------------
 Temperature   298.150 Kelvin.  Pressure   1.00000 Atm.
 Atom     1 has atomic number  6 and mass  12.00000

 Molecular mass:   248.20010 amu.
 Principal axes and moments of inertia in atomic units:
                           1         2         3
     Eigenvalues --  2249.170437964.860709635.85330
           X            1.00000   0.00013  -0.00158
           Y           -0.00014   0.99999  -0.00335
           Z            0.00158   0.00335   0.99999
 This molecule is an asymmetric top.
 Rotational symmetry number  1.
 Warning -- assumption of classical behavior for rotation
           may cause significant error
 Rotational temperatures (Kelvin)      0.03851     0.01087     0.00899
 Rotational constants (GHZ):           0.80240     0.22659     0.18729
    1 imaginary frequencies ignored.
 Zero-point vibrational energy     984566.6 (Joules/Mol)
                                  235.31707 (Kcal/Mol)
 Warning -- explicit consideration of  27 degrees of freedom as
           vibrations may cause significant error
 Vibrational temperatures:     40.34    47.15   106.12   111.49   125.14
          (Kelvin)            147.98   205.39   273.21   309.44   312.14
                              316.24   347.62   351.44   358.96   397.31
                              425.50   455.85   515.43   551.92   562.70
                              615.85   620.60   672.40   715.26   769.35
                              797.80   868.01   979.57  1035.58  1080.25
                             1133.90  1160.84  1207.28  1232.96  1312.31
                             1316.01  1325.50  1340.28  1342.06  1383.27
                             1386.85  1397.52  1401.83  1418.58  1453.25
                             1472.96  1506.02  1546.60  1574.34  1609.77
                             1625.67  1663.79  1668.40  1671.77  1679.75
                             1709.34  1713.80  1747.50  1753.85  1767.97
                             1810.34  1831.36  1841.60  1844.40  1851.04
                             1861.22  1866.95  1888.29  1921.22  1924.51
                             1952.39  1980.74  1983.10  1993.24  1997.83
                             1999.92  2007.03  2013.03  2013.52  2093.28
                             2094.40  2097.32  2099.21  2099.40  2118.77
                             2120.50  2124.06  2127.43  2131.31  2133.06
                             2135.18  2192.10  2344.66  2523.03  2570.66
                             4309.75  4345.58  4348.45  4357.12  4367.04
                             4370.19  4379.67  4383.98  4384.27  4390.35
                             4390.76  4424.88  4458.81  4480.25  4484.09
                             4497.24  4511.90  4513.01  4516.61  4518.13
                             4531.73  4533.49  4549.18  4559.75

 Zero-point correction=                           0.375002 (Hartree/Particle)
 Thermal correction to Energy=                    0.392496
 Thermal correction to Enthalpy=                  0.393440
 Thermal correction to Gibbs Free Energy=         0.329104
 Sum of electronic and zero-point Energies=           -765.160808
 Sum of electronic and thermal Energies=              -765.143314
 Sum of electronic and thermal Enthalpies=            -765.142370
 Sum of electronic and thermal Free Energies=         -765.206706

                     E (Thermal)             CV                S
                      KCal/Mol        Cal/Mol-Kelvin    Cal/Mol-Kelvin
 Total                  246.295             67.612            135.407
 Electronic               0.000              0.000              0.000
 Translational            0.889              2.981             42.428
 Rotational               0.889              2.981             33.512
 Vibrational            244.517             61.651             59.467
 Vibration     1          0.593              1.984              5.964
 Vibration     2          0.594              1.983              5.654
 Vibration     3          0.599              1.966              4.051
 Vibration     4          0.599              1.964              3.953
 Vibration     5          0.601              1.958              3.727
 Vibration     6          0.605              1.947              3.399
 Vibration     7          0.616              1.910              2.767
 Vibration     8          0.633              1.854              2.229
 Vibration     9          0.645              1.818              2.000
 Vibration    10          0.646              1.815              1.984
 Vibration    11          0.647              1.811              1.961
 Vibration    12          0.658              1.777              1.791
 Vibration    13          0.660              1.772              1.772
 Vibration    14          0.662              1.764              1.734
 Vibration    15          0.678              1.718              1.557
 Vibration    16          0.690              1.682              1.441
 Vibration    17          0.704              1.641              1.326
 Vibration    18          0.733              1.558              1.130
 Vibration    19          0.753              1.505              1.025
 Vibration    20          0.759              1.489              0.996
 Vibration    21          0.790              1.409              0.865
 Vibration    22          0.792              1.402              0.854
 Vibration    23          0.825              1.323              0.745
 Vibration    24          0.853              1.256              0.665
 Vibration    25          0.890              1.173              0.577
 Vibration    26          0.910              1.130              0.535
 Vibration    27          0.962              1.025              0.444

 Normal termination of Gaussian 16 at Mon Jan 23 09:07:46 2023.
