 Gaussian 16, Revision A.03,
 Gaussian 16:  ES64L-G16RevA.03 25-Dec-2016

 ----------------------------------------------------------------------
 #p pop=(regular,nbo,savenbos) freq=noraman def2svp empiricaldispersion
 =gd3bj output=wfx pbe1pbe
 ----------------------------------------------------------------------

 ------
 28_sub
 ------
 Symbolic Z-matrix:
 Charge =  0 Multiplicity = 1

                         Standard orientation:
 ---------------------------------------------------------------------
 Center     Atomic      Atomic             Coordinates (Angstroms)
 Number     Number       Type             X           Y           Z
 ---------------------------------------------------------------------
      1          6           0        2.806381    0.511150    1.028687
      2          6           0        2.617592   -1.000503    0.730460
      3          1           0        2.765013   -1.622384    1.626454
      4          7           0        1.215894   -1.097293    0.350946
      5          6           0        0.725375    0.088990    0.243155
      6          7           0        1.573110    1.103821    0.512686
      7          6           0        1.264250    2.501761    0.659668
      8          6           0        0.276261    3.028552   -0.370142
      9          6           0       -1.173592    2.606442   -0.193867
     10          7           0       -1.436363    1.223585   -0.501361
     11          6           0       -0.691839    0.145263   -0.169557
     12          7           0       -1.276554   -0.998215   -0.267916
     13          6           0       -2.646338   -0.796894   -0.715308
     14          1           0       -2.717222   -1.233553   -1.725785
     15          6           0       -2.797748    0.747433   -0.750354
     16          6           0       -3.644225   -1.549169    0.172482
     17          6           0       -3.531690   -1.163127    1.640135
     18          6           0       -5.060328   -1.390404   -0.362606
     19          6           0        3.514627   -1.577909   -0.375146
     20          6           0        3.341810   -0.862904   -1.707766
     21          6           0        4.967536   -1.615637    0.076732
     22          1           0        3.684064    0.943480    0.521110
     23          1           0        2.903678    0.719053    2.109105
     24          1           0        2.213026    3.047838    0.543404
     25          1           0        0.901244    2.725017    1.683969
     26          1           0        0.620923    2.757017   -1.381664
     27          1           0        0.299699    4.127530   -0.310808
     28          1           0       -1.795531    3.205636   -0.876814
     29          1           0       -1.516134    2.851587    0.832876
     30          1           0       -3.475402    1.117179    0.041378
     31          1           0       -3.168799    1.125799   -1.715011
     32          1           0       -3.342371   -2.604994    0.065074
     33          1           0       -3.813163   -0.110903    1.821237
     34          1           0       -2.507425   -1.313648    2.013636
     35          1           0       -4.202348   -1.784168    2.252394
     36          1           0       -5.410215   -0.345039   -0.301707
     37          1           0       -5.766591   -2.001973    0.218402
     38          1           0       -5.129130   -1.711479   -1.413601
     39          1           0        3.156432   -2.616347   -0.481615
     40          1           0        3.668439    0.190469   -1.661892
     41          1           0        2.293308   -0.885477   -2.041766
     42          1           0        3.942879   -1.353585   -2.487777
     43          1           0        5.381088   -0.603767    0.230410
     44          1           0        5.595647   -2.109763   -0.679382
     45          1           0        5.077864   -2.175065    1.018453
 ---------------------------------------------------------------------

 SCF Done:  E(RPBE1PBE) =  -804.766342741     A.U. after   15 cycles

 The electronic state is 1-A.
 Alpha  occ. eigenvalues --  -14.41259 -14.41245 -14.33548 -14.33398 -10.28749
 Alpha  occ. eigenvalues --  -10.28696 -10.28195 -10.28150 -10.26350 -10.26283
 Alpha  occ. eigenvalues --  -10.25378 -10.24661 -10.24619 -10.22472 -10.22444
 Alpha  occ. eigenvalues --  -10.21879 -10.21836 -10.21108 -10.21055  -1.02354
 Alpha  occ. eigenvalues --   -1.00064  -0.90576  -0.87823  -0.82311  -0.80778
 Alpha  occ. eigenvalues --   -0.80575  -0.75823  -0.73538  -0.71105  -0.68854
 Alpha  occ. eigenvalues --   -0.68804  -0.65363  -0.65058  -0.63095  -0.61276
 Alpha  occ. eigenvalues --   -0.55927  -0.55070  -0.54144  -0.53767  -0.50783
 Alpha  occ. eigenvalues --   -0.50453  -0.48884  -0.48324  -0.46714  -0.45390
 Alpha  occ. eigenvalues --   -0.45105  -0.44577  -0.44124  -0.43160  -0.42223
 Alpha  occ. eigenvalues --   -0.41341  -0.41080  -0.40699  -0.39161  -0.38743
 Alpha  occ. eigenvalues --   -0.38356  -0.38227  -0.37798  -0.37192  -0.36674
 Alpha  occ. eigenvalues --   -0.36421  -0.34143  -0.33732  -0.33716  -0.33418
 Alpha  occ. eigenvalues --   -0.32264  -0.32215  -0.31236  -0.26402  -0.23067
 Alpha  occ. eigenvalues --   -0.21779  -0.19770
 Alpha virt. eigenvalues --   -0.01164   0.04792   0.06505   0.07059   0.08518
 Alpha virt. eigenvalues --    0.08998   0.09365   0.10227   0.10617   0.11413
 Alpha virt. eigenvalues --    0.11756   0.12266   0.12917   0.13137   0.13668

 Mulliken charges:
               1
     1  C    0.182319
     2  C   -0.023538
     3  H    0.030268
     4  N   -0.214781
     5  C    0.117700
     6  N   -0.414245
     7  C    0.147615
     8  C   -0.117119
     9  C    0.140818
    10  N   -0.415506
    11  C    0.120717
    12  N   -0.212904
    13  C   -0.029792
    14  H    0.033727
    15  C    0.193536
    16  C   -0.149055
    17  C   -0.043771
    18  C   -0.030468
    19  C   -0.147716
    20  C   -0.041990
    21  C   -0.026246
    22  H    0.032182
    23  H    0.032926
    24  H    0.039837
    25  H    0.027004
    26  H    0.059817
    27  H    0.050641
    28  H    0.040460
    29  H    0.025861
    30  H    0.024880
    31  H    0.037207
    32  H    0.046906
    33  H    0.018470
    34  H    0.062417
    35  H    0.034496
    36  H    0.027802
    37  H    0.039591
    38  H    0.035538
    39  H    0.047997
    40  H    0.020281
    41  H    0.061779
    42  H    0.034734
    43  H    0.025051
    44  H    0.039053
    45  H    0.035498
 Sum of Mulliken charges =  -0.00000

 Dipole moment (field-independent basis, Debye):
    X=              0.1273    Y=              4.8509    Z=              0.2005  Tot=              4.8567
 Quadrupole moment (field-independent basis, Debye-Ang):
   XX=           -109.5411   YY=           -113.0799   ZZ=           -116.4019
   XY=             -0.0881   XZ=              3.1793   YZ=              0.4758

  Exact polarizability: 223.348  -1.179 188.822   7.743   2.283 149.740
 Approx polarizability: 257.833  -0.442 285.435   9.945   3.949 217.683

 Summary of Natural Population Analysis:

                                       Natural Population
                Natural  -----------------------------------------------
    Atom  No    Charge         Core      Valence    Rydberg      Total
 -----------------------------------------------------------------------
      C    1   -0.23104      1.99917     4.21370    0.01816     6.23104
      C    2   -0.05866      1.99898     4.03397    0.02571     6.05866
      H    3    0.23749      0.00000     0.75889    0.00361     0.76251
      N    4   -0.51372      1.99934     5.49735    0.01703     7.51372
      C    5    0.41659      1.99901     3.54919    0.03520     5.58341
      N    6   -0.51835      1.99903     5.50664    0.01269     7.51835
      C    7   -0.21437      1.99917     4.19720    0.01800     6.21437
      C    8   -0.46649      1.99914     4.45456    0.01279     6.46649
      C    9   -0.21445      1.99917     4.19748    0.01780     6.21445
      N   10   -0.51783      1.99903     5.50605    0.01274     7.51783
      C   11    0.41877      1.99901     3.54703    0.03518     5.58123
      N   12   -0.51204      1.99934     5.49582    0.01688     7.51204
      C   13   -0.05858      1.99899     4.03448    0.02510     6.05858
      H   14    0.23386      0.00000     0.76171    0.00443     0.76614
      C   15   -0.23135      1.99918     4.21443    0.01773     6.23135
      C   16   -0.26050      1.99898     4.24539    0.01613     6.26050
      C   17   -0.66053      1.99922     4.64970    0.01161     6.66053
      C   18   -0.65245      1.99922     4.64265    0.01058     6.65245
      C   19   -0.26287      1.99897     4.24744    0.01645     6.26287
      C   20   -0.66056      1.99922     4.65003    0.01130     6.66056
      C   21   -0.65158      1.99922     4.64171    0.01065     6.65158
      H   22    0.21444      0.00000     0.78232    0.00324     0.78556
      H   23    0.21347      0.00000     0.78279    0.00374     0.78653
      H   24    0.23195      0.00000     0.76494    0.00311     0.76805
      H   25    0.20307      0.00000     0.79164    0.00530     0.79693
      H   26    0.23871      0.00000     0.75609    0.00520     0.76129
      H   27    0.24601      0.00000     0.75097    0.00302     0.75399
      H   28    0.23135      0.00000     0.76545    0.00321     0.76865
      H   29    0.20185      0.00000     0.79270    0.00545     0.79815
      H   30    0.20417      0.00000     0.79177    0.00407     0.79583
      H   31    0.22336      0.00000     0.77393    0.00271     0.77664
      H   32    0.24855      0.00000     0.74620    0.00525     0.75145
      H   33    0.20715      0.00000     0.79007    0.00278     0.79285
      H   34    0.24219      0.00000     0.75428    0.00353     0.75781
      H   35    0.22533      0.00000     0.77224    0.00243     0.77467
      H   36    0.21225      0.00000     0.78493    0.00282     0.78775
      H   37    0.22744      0.00000     0.77001    0.00255     0.77256
      H   38    0.22249      0.00000     0.77486    0.00265     0.77751
      H   39    0.24938      0.00000     0.74528    0.00535     0.75062
      H   40    0.20968      0.00000     0.78764    0.00268     0.79032
      H   41    0.23940      0.00000     0.75734    0.00325     0.76060
      H   42    0.22535      0.00000     0.77216    0.00250     0.77465
      H   43    0.21117      0.00000     0.78595    0.00288     0.78883
      H   44    0.22731      0.00000     0.77011    0.00258     0.77269
      H   45    0.22260      0.00000     0.77473    0.00267     0.77740
 =======================================================================
   * Total *   -0.00000     37.98342   105.58382    0.43276   144.00000

 ******    2 imaginary frequencies (negative Signs) ******

                      1                      2                      3
                      A                      A                      A
 Frequencies --    -74.1507               -63.7599                26.4859
 Red. masses --      5.4719                 4.5670                 2.9795
 Frc consts  --      0.0177                 0.0109                 0.0012
 IR Inten    --      0.0099                 1.6362                 0.0497

                      4                      5                      6
                      A                      A                      A
 Frequencies --     51.5991                74.1592                80.8373
 Red. masses --      3.2028                 2.8423                 2.4975
 Frc consts  --      0.0050                 0.0092                 0.0096
 IR Inten    --      2.5080                 0.8589                 0.0270

                      7                      8                      9
                      A                      A                      A
 Frequencies --     99.8611               107.4593               131.6800
 Red. masses --      2.6985                 2.7585                 3.3205
 Frc consts  --      0.0159                 0.0188                 0.0339
 IR Inten    --      0.1667                 1.9549                 0.8059

                     10                     11                     12
                      A                      A                      A
 Frequencies --    211.4314               214.2973               233.1934
 Red. masses --      2.3328                 1.8449                 1.1064
 Frc consts  --      0.0614                 0.0499                 0.0354
 IR Inten    --      3.5528                 1.0431                 0.9123

                     13                     14                     15
                      A                      A                      A
 Frequencies --    237.8006               240.5721               254.0350
 Red. masses --      1.4397                 1.3654                 1.2088
 Frc consts  --      0.0480                 0.0466                 0.0460
 IR Inten    --      0.0292                 0.4760                 0.1583

                     16                     17                     18
                      A                      A                      A
 Frequencies --    264.9360               273.8712               291.5969
 Red. masses --      1.6165                 2.2813                 3.0061
 Frc consts  --      0.0669                 0.1008                 0.1506
 IR Inten    --      0.1661                 0.5205                 0.1341

                     19                     20                     21
                      A                      A                      A
 Frequencies --    312.5766               315.9041               347.9426
 Red. masses --      3.2630                 1.8132                 3.3062
 Frc consts  --      0.1878                 0.1066                 0.2358
 IR Inten    --      0.6046                 2.8203                 1.8948

                     22                     23                     24
                      A                      A                      A
 Frequencies --    370.2980               390.9816               428.5798
 Red. masses --      2.7705                 2.6650                 2.9861
 Frc consts  --      0.2238                 0.2400                 0.3232
 IR Inten    --      0.8463                 1.2908                 1.0202

                     25                     26                     27
                      A                      A                      A
 Frequencies --    464.1173               478.4386               534.3434
 Red. masses --      2.7996                 3.6127                 2.8922
 Frc consts  --      0.3553                 0.4872                 0.4865
 IR Inten    --      0.9696                 5.5792                 0.7007

                     28                     29                     30
                      A                      A                      A
 Frequencies --    549.4945               564.0362               601.9006
 Red. masses --      2.1632                 2.6157                 4.2425
 Frc consts  --      0.3848                 0.4903                 0.9056
 IR Inten    --      4.0882                 8.2461                11.8671

                     31                     32                     33
                      A                      A                      A
 Frequencies --    657.3133               729.4866               746.6006
 Red. masses --      3.0395                 3.9603                 6.3243
 Frc consts  --      0.7737                 1.2417                 2.0770
 IR Inten    --      0.3838                 5.7915                 3.4908

                     34                     35                     36
                      A                      A                      A
 Frequencies --    778.4655               789.6004               838.7493
 Red. masses --      3.8375                 2.8051                 5.3328
 Frc consts  --      1.3702                 1.0304                 2.2104
 IR Inten    --      2.2201                 1.7276                 0.8906

                     37                     38                     39
                      A                      A                      A
 Frequencies --    851.3579               896.4466               902.5288
 Red. masses --      3.7209                 1.3652                 2.4600
 Frc consts  --      1.5890                 0.6464                 1.1806
 IR Inten    --      3.1549                 2.5340                 0.3435

                     40                     41                     42
                      A                      A                      A
 Frequencies --    911.6318               919.2004               922.8678
 Red. masses --      2.0552                 1.8638                 1.1718
 Frc consts  --      1.0063                 0.9278                 0.5880
 IR Inten    --      0.8345                 0.3051                 3.9505

                     43                     44                     45
                      A                      A                      A
 Frequencies --    923.8598               959.6534               959.7128
 Red. masses --      1.2446                 1.6489                 1.7728
 Frc consts  --      0.6259                 0.8947                 0.9620
 IR Inten    --      2.2280                 1.5378                 2.9806

                     46                     47                     48
                      A                      A                      A
 Frequencies --    964.5812               969.3739               984.6590
 Red. masses --      1.7788                 1.8438                 1.7855
 Frc consts  --      0.9751                 1.0208                 1.0199
 IR Inten    --      1.9024                 5.6856                 9.4840

                     49                     50                     51
                      A                      A                      A
 Frequencies --   1005.4778              1023.9828              1030.0201
 Red. masses --      2.6791                 1.7998                 1.8424
 Frc consts  --      1.5958                 1.1119                 1.1517
 IR Inten    --      1.2251                 8.9772                10.9635

                     52                     53                     54
                      A                      A                      A
 Frequencies --   1091.1986              1093.2816              1110.5945
 Red. masses --      2.0058                 2.9067                 2.0459
 Frc consts  --      1.4071                 2.0470                 1.4867
 IR Inten    --     20.3891                17.0112                 5.6035

                     55                     56                     57
                      A                      A                      A
 Frequencies --   1112.0187              1131.5354              1135.8639
 Red. masses --      3.1111                 1.8260                 1.9440
 Frc consts  --      2.2666                 1.3775                 1.4778
 IR Inten    --     21.9208                 3.7654                12.1161

                     58                     59                     60
                      A                      A                      A
 Frequencies --   1159.4154              1165.1161              1170.6286
 Red. masses --      2.1197                 2.5300                 2.2110
 Frc consts  --      1.6788                 2.0235                 1.7852
 IR Inten    --      1.6601                 1.5327                 3.8598

                     61                     62                     63
                      A                      A                      A
 Frequencies --   1193.0631              1205.2100              1211.8485
 Red. masses --      1.2393                 1.3286                 1.5500
 Frc consts  --      1.0393                 1.1370                 1.3412
 IR Inten    --      8.7337                 6.5527                14.4587

                     64                     65                     66
                      A                      A                      A
 Frequencies --   1214.3322              1223.5197              1240.3388
 Red. masses --      1.5287                 1.3094                 1.6649
 Frc consts  --      1.3281                 1.1549                 1.5091
 IR Inten    --      7.5653                10.4220                39.7684

                     67                     68                     69
                      A                      A                      A
 Frequencies --   1262.3546              1269.7740              1283.1790
 Red. masses --      1.4506                 1.2858                 1.4524
 Frc consts  --      1.3619                 1.2214                 1.4090
 IR Inten    --     11.3582                20.1544                46.4214

                     70                     71                     72
                      A                      A                      A
 Frequencies --   1293.4869              1300.2828              1304.0316
 Red. masses --      1.4186                 1.4746                 1.1815
 Frc consts  --      1.3984                 1.4689                 1.1838
 IR Inten    --     27.2161                11.5523                 9.5767

                     73                     74                     75
                      A                      A                      A
 Frequencies --   1314.3811              1329.3153              1336.6112
 Red. masses --      1.5022                 1.4806                 1.7816
 Frc consts  --      1.5291                 1.5415                 1.8753
 IR Inten    --      5.4406                 5.9371                 0.3695

                     76                     77                     78
                      A                      A                      A
 Frequencies --   1343.3040              1353.5992              1360.8825
 Red. masses --      1.8883                 1.4056                 1.2975
 Frc consts  --      2.0076                 1.5174                 1.4158
 IR Inten    --      0.6727                 0.4457                 1.8356

                     79                     80                     81
                      A                      A                      A
 Frequencies --   1374.8495              1377.1325              1393.8194
 Red. masses --      1.5140                 2.0587                 1.3927
 Frc consts  --      1.6862                 2.3003                 1.5941
 IR Inten    --     18.1188                 2.0747                 7.8211

                     82                     83                     84
                      A                      A                      A
 Frequencies --   1394.8915              1401.8517              1403.1143
 Red. masses --      1.4145                 1.4223                 1.4489
 Frc consts  --      1.6215                 1.6468                 1.6806
 IR Inten    --      9.0863                21.0579                 3.6628

                     85                     86                     87
                      A                      A                      A
 Frequencies --   1409.1162              1415.5672              1436.7213
 Red. masses --      1.8459                 2.1838                 1.1087
 Frc consts  --      2.1596                 2.5782                 1.3484
 IR Inten    --    103.5872                 7.0324                17.8430

                     88                     89                     90
                      A                      A                      A
 Frequencies --   1455.0236              1457.2196              1459.6003
 Red. masses --      1.0575                 1.0622                 1.0819
 Frc consts  --      1.3191                 1.3290                 1.3580
 IR Inten    --      2.4916                 2.3676                 2.9356

                     91                     92                     93
                      A                      A                      A
 Frequencies --   1462.2695              1467.8089              1471.5432
 Red. masses --      1.0792                 1.2410                 1.0667
 Frc consts  --      1.3595                 1.5752                 1.3610
 IR Inten    --      1.6449                 0.6177                 7.4257

                     94                     95                     96
                      A                      A                      A
 Frequencies --   1473.5710              1479.5858              1480.7214
 Red. masses --      1.0597                 1.0972                 1.1013
 Frc consts  --      1.3557                 1.4152                 1.4227
 IR Inten    --     12.3427                 4.6903                 5.9580

                     97                     98                     99
                      A                      A                      A
 Frequencies --   1484.4351              1485.1036              1487.9481
 Red. masses --      1.0878                 1.0770                 1.1036
 Frc consts  --      1.4122                 1.3995                 1.4396
 IR Inten    --     12.2632                18.6292                 2.6026

                    100                    101                    102
                      A                      A                      A
 Frequencies --   1541.1552              1656.4022              1678.1074
 Red. masses --      2.7382                 7.1394                 9.5723
 Frc consts  --      3.8318                11.5410                15.8820
 IR Inten    --     73.7399               202.0539               307.0499

                    103                    104                    105
                      A                      A                      A
 Frequencies --   1716.3596              2985.9688              2991.7119
 Red. masses --      9.3195                 1.0731                 1.0725
 Frc consts  --     16.1755                 5.6372                 5.6557
 IR Inten    --     23.4538                19.3134               130.5683

                    106                    107                    108
                      A                      A                      A
 Frequencies --   3027.2615              3034.3707              3041.2017
 Red. masses --      1.0664                 1.0632                 1.0392
 Frc consts  --      5.7577                 5.7677                 5.6630
 IR Inten    --     39.0856                40.9449                21.0786

                    109                    110                    111
                      A                      A                      A
 Frequencies --   3042.5394              3044.6002              3046.2362
 Red. masses --      1.0391                 1.0425                 1.0411
 Frc consts  --      5.6674                 5.6937                 5.6920
 IR Inten    --     28.6203                32.7850                19.0653

                    112                    113                    114
                      A                      A                      A
 Frequencies --   3056.9428              3070.2912              3073.8718
 Red. masses --      1.0853                 1.0844                 1.0648
 Frc consts  --      5.9756                 6.0226                 5.9275
 IR Inten    --     22.1387                 7.9380                 6.1151

                    115                    116                    117
                      A                      A                      A
 Frequencies --   3074.1008              3087.7091              3096.7624
 Red. masses --      1.0859                 1.0913                 1.1009
 Frc consts  --      6.0459                 6.1300                 6.2204
 IR Inten    --     12.9781                32.9960                39.5087

                    118                    119                    120
                      A                      A                      A
 Frequencies --   3102.0295              3106.6207              3109.2144
 Red. masses --      1.0926                 1.0934                 1.1006
 Frc consts  --      6.1944                 6.2176                 6.2690
 IR Inten    --     37.6489                23.4446                16.0748

                    121                    122                    123
                      A                      A                      A
 Frequencies --   3129.8061              3131.1688              3133.4908
 Red. masses --      1.1006                 1.1010                 1.0993
 Frc consts  --      6.3521                 6.3596                 6.3596
 IR Inten    --      8.0319                10.4300                42.0764

                    124                    125                    126
                      A                      A                      A
 Frequencies --   3135.2782              3135.5545              3149.7447
 Red. masses --      1.1007                 1.1036                 1.1032
 Frc consts  --      6.3749                 6.3925                 6.4487
 IR Inten    --     63.3555                 1.6360                22.6201

                    127                    128                    129
                      A                      A                      A
 Frequencies --   3150.6588              3154.7875              3156.9990
 Red. masses --      1.1034                 1.1032                 1.1035
 Frc consts  --      6.4535                 6.4691                 6.4799
 IR Inten    --     22.1699                14.9344                13.3996

 - Thermochemistry -
 -------------------
 Temperature   298.150 Kelvin.  Pressure   1.00000 Atm.
 Atom     1 has atomic number  6 and mass  12.00000

 Molecular mass:   262.21575 amu.
 Principal axes and moments of inertia in atomic units:
                           1         2         3
     Eigenvalues --  2789.659127922.203809490.62582
           X            0.99999   0.00010  -0.00474
           Y           -0.00009   1.00000   0.00131
           Z            0.00474  -0.00131   0.99999
 This molecule is an asymmetric top.
 Rotational symmetry number  1.
 Warning -- assumption of classical behavior for rotation
           may cause significant error
 Rotational temperatures (Kelvin)      0.03105     0.01093     0.00913
 Rotational constants (GHZ):           0.64694     0.22781     0.19016
    2 imaginary frequencies ignored.
 Zero-point vibrational energy    1060250.3 (Joules/Mol)
                                  253.40590 (Kcal/Mol)
 Warning -- explicit consideration of  28 degrees of freedom as
           vibrations may cause significant error
 Vibrational temperatures:     38.11    74.24   106.70   116.31   143.68
          (Kelvin)            154.61   189.46   304.20   308.33   335.51
                              342.14   346.13   365.50   381.18   394.04
                              419.54   449.73   454.52   500.61   532.78
                              562.54   616.63   667.76   688.37   768.80
                              790.60   811.52   866.00   945.73  1049.57
                             1074.19  1120.04  1136.06  1206.77  1224.91
                             1289.79  1298.54  1311.63  1322.52  1327.80
                             1329.23  1380.73  1380.81  1387.82  1394.71
                             1416.70  1446.66  1473.28  1481.97  1569.99
                             1572.99  1597.90  1599.95  1628.03  1634.25
                             1668.14  1676.34  1684.27  1716.55  1734.03
                             1743.58  1747.15  1760.37  1784.57  1816.25
                             1826.92  1846.21  1861.04  1870.82  1876.21
                             1891.10  1912.59  1923.09  1932.71  1947.53
                             1958.01  1978.10  1981.39  2005.40  2006.94
                             2016.95  2018.77  2027.40  2036.69  2067.12
                             2093.45  2096.61  2100.04  2103.88  2111.85
                             2117.22  2120.14  2128.79  2130.43  2135.77
                             2136.73  2140.83  2217.38  2383.19  2414.42
                             2469.46  4296.14  4304.41  4355.55  4365.78
                             4375.61  4377.54  4380.50  4382.85  4398.26
                             4417.46  4422.62  4422.95  4442.52  4455.55
                             4463.13  4469.73  4473.47  4503.09  4505.05
                             4508.39  4510.97  4511.36  4531.78  4533.10
                             4539.04  4542.22

 Zero-point correction=                           0.403828 (Hartree/Particle)
 Thermal correction to Energy=                    0.421639
 Thermal correction to Enthalpy=                  0.422584
 Thermal correction to Gibbs Free Energy=         0.358147
 Sum of electronic and zero-point Energies=           -804.362515
 Sum of electronic and thermal Energies=              -804.344703
 Sum of electronic and thermal Enthalpies=            -804.343759
 Sum of electronic and thermal Free Energies=         -804.408196

                     E (Thermal)             CV                S
                      KCal/Mol        Cal/Mol-Kelvin    Cal/Mol-Kelvin
 Total                  264.583             70.247            135.618
 Electronic               0.000              0.000              0.000
 Translational            0.889              2.981             42.591
 Rotational               0.889              2.981             33.705
 Vibrational            262.805             64.285             59.321
 Vibration     1          0.593              1.985              6.077
 Vibration     2          0.596              1.977              4.755
 Vibration     3          0.599              1.966              4.040
 Vibration     4          0.600              1.962              3.870
 Vibration     5          0.604              1.949              3.457
 Vibration     6          0.606              1.943              3.314
 Vibration     7          0.612              1.922              2.921
 Vibration     8          0.643              1.823              2.031
 Vibration     9          0.644              1.819              2.007
 Vibration    10          0.654              1.790              1.854
 Vibration    11          0.656              1.783              1.819
 Vibration    12          0.658              1.778              1.799
 Vibration    13          0.665              1.756              1.702
 Vibration    14          0.671              1.737              1.629
 Vibration    15          0.676              1.722              1.572
 Vibration    16          0.687              1.689              1.465
 Vibration    17          0.701              1.650              1.349
 Vibration    18          0.703              1.643              1.331
 Vibration    19          0.726              1.579              1.175
 Vibration    20          0.742              1.533              1.079
 Vibration    21          0.759              1.489              0.996
 Vibration    22          0.790              1.408              0.863
 Vibration    23          0.822              1.330              0.754
 Vibration    24          0.835              1.298              0.714
 Vibration    25          0.889              1.174              0.578
 Vibration    26          0.905              1.141              0.545
 Vibration    27          0.920              1.109              0.516
 Vibration    28          0.960              1.028              0.446

 Normal termination of Gaussian 16 at Mon Jan 23 09:13:49 2023.
