 Gaussian 16, Revision A.03,
 Gaussian 16:  ES64L-G16RevA.03 25-Dec-2016

 ----------------------------------------------------------------------
 #p pop=(regular,nbo,savenbos) freq=noraman def2svp empiricaldispersion
 =gd3bj output=wfx pbe1pbe
 ----------------------------------------------------------------------

 ------
 29_sub
 ------
 Symbolic Z-matrix:
 Charge =  0 Multiplicity = 1

                         Standard orientation:
 ---------------------------------------------------------------------
 Center     Atomic      Atomic             Coordinates (Angstroms)
 Number     Number       Type             X           Y           Z
 ---------------------------------------------------------------------
      1          6           0        2.556878    0.188897    1.268630
      2          6           0        2.486818   -1.257166    0.710734
      3          1           0        2.653764   -2.021519    1.486388
      4          7           0        1.106157   -1.374431    0.265686
      5          6           0        0.568986   -0.204172    0.272045
      6          7           0        1.350804    0.802677    0.712139
      7          6           0        0.956283    2.158598    0.980769
      8          6           0        0.114880    2.826814   -0.122286
      9          6           0       -1.337647    2.324478   -0.130629
     10          7           0       -1.544720    0.956213   -0.529313
     11          6           0       -0.822889   -0.138209   -0.208657
     12          7           0       -1.391271   -1.276639   -0.411896
     13          6           0       -2.757709   -1.051069   -0.858549
     14          1           0       -2.879315   -1.580839   -1.816309
     15          6           0       -2.837740    0.489362   -1.034776
     16          6           0       -3.772274   -1.621130    0.149038
     17          6           0       -3.712297   -3.142561    0.208383
     18          6           0       -3.600579   -1.016576    1.538399
     19          6           0        0.050909    4.317720    0.223193
     20          6           0        0.763191    2.639299   -1.493274
     21          6           0        3.474065   -1.503519   -0.445214
     22          6           0        4.894303   -1.583770    0.102829
     23          6           0        3.124368   -2.749641   -1.249759
     24          1           0        3.456504    0.728761    0.934285
     25          1           0        2.524945    0.223644    2.372773
     26          1           0        1.886274    2.737515    1.090492
     27          1           0        0.422389    2.240140    1.949618
     28          1           0       -1.901297    2.946964   -0.843736
     29          1           0       -1.788069    2.508318    0.866171
     30          1           0       -3.662838    0.931922   -0.451472
     31          1           0       -2.963823    0.797202   -2.085890
     32          1           0       -4.764715   -1.327683   -0.242439
     33          1           0       -2.764792   -3.488909    0.649135
     34          1           0       -3.769124   -3.596377   -0.790499
     35          1           0       -4.533904   -3.533610    0.827614
     36          1           0       -2.622610   -1.297164    1.960849
     37          1           0       -4.374879   -1.394800    2.222012
     38          1           0       -3.673274    0.083405    1.542258
     39          1           0       -0.380019    4.483249    1.223313
     40          1           0       -0.566816    4.863936   -0.505196
     41          1           0        1.056414    4.763990    0.209905
     42          1           0        0.783798    1.587699   -1.810549
     43          1           0        1.800911    3.006154   -1.484308
     44          1           0        0.211643    3.207230   -2.257841
     45          1           0        3.404798   -0.624069   -1.115443
     46          1           0        5.006707   -2.470571    0.747311
     47          1           0        5.171744   -0.698876    0.698212
     48          1           0        5.624146   -1.671796   -0.715495
     49          1           0        3.022856   -3.631151   -0.598135
     50          1           0        3.905296   -2.948397   -1.999458
     51          1           0        2.169218   -2.643243   -1.785133
 ---------------------------------------------------------------------

 SCF Done:  E(RPBE1PBE) =  -883.250027716     A.U. after   15 cycles

 The electronic state is 1-A.
 Alpha  occ. eigenvalues --  -14.41282 -14.41219 -14.33525 -14.33494 -10.28742
 Alpha  occ. eigenvalues --  -10.28660 -10.27898 -10.27894 -10.26621 -10.26438
 Alpha  occ. eigenvalues --  -10.26319 -10.24725 -10.24705 -10.24182 -10.23278
 Alpha  occ. eigenvalues --  -10.22709 -10.22651 -10.21820 -10.21306 -10.20631
 Alpha  occ. eigenvalues --  -10.20363  -1.02440  -1.00093  -0.90955  -0.87827
 Alpha  occ. eigenvalues --   -0.84214  -0.82146  -0.80316  -0.76361  -0.73766
 Alpha  occ. eigenvalues --   -0.71612  -0.71137  -0.71042  -0.68386  -0.68301
 Alpha  occ. eigenvalues --   -0.64544  -0.62662  -0.62283  -0.59484  -0.56608
 Alpha  occ. eigenvalues --   -0.55378  -0.54664  -0.52759  -0.50343  -0.49702
 Alpha  occ. eigenvalues --   -0.48849  -0.48740  -0.46939  -0.46310  -0.45662
 Alpha  occ. eigenvalues --   -0.44918  -0.44250  -0.43601  -0.42605  -0.41981
 Alpha  occ. eigenvalues --   -0.41536  -0.40943  -0.40374  -0.39986  -0.39558
 Alpha  occ. eigenvalues --   -0.39210  -0.38458  -0.37992  -0.37607  -0.37364
 Alpha  occ. eigenvalues --   -0.36677  -0.36002  -0.35815  -0.35056  -0.33924
 Alpha  occ. eigenvalues --   -0.33823  -0.33575  -0.33051  -0.32509  -0.32388
 Alpha  occ. eigenvalues --   -0.31112  -0.26202  -0.23117  -0.21710  -0.19830
 Alpha virt. eigenvalues --   -0.01217   0.04120   0.06767   0.07081   0.08434
 Alpha virt. eigenvalues --    0.08995   0.09233   0.09373   0.09907   0.10712
 Alpha virt. eigenvalues --    0.11129   0.11244   0.12188   0.12783   0.13015

 Mulliken charges:
               1
     1  C    0.204192
     2  C   -0.031146
     3  H    0.027930
     4  N   -0.208879
     5  C    0.108474
     6  N   -0.408459
     7  C    0.245460
     8  C   -0.494780
     9  C    0.240668
    10  N   -0.411125
    11  C    0.117058
    12  N   -0.216846
    13  C   -0.040229
    14  H    0.031510
    15  C    0.210238
    16  C   -0.155624
    17  C   -0.015442
    18  C   -0.043352
    19  C    0.022159
    20  C    0.031157
    21  C   -0.168344
    22  C   -0.027173
    23  C   -0.002759
    24  H    0.027170
    25  H    0.032227
    26  H    0.027878
    27  H    0.023983
    28  H    0.028814
    29  H    0.022962
    30  H    0.025723
    31  H    0.036934
    32  H    0.026646
    33  H    0.057846
    34  H    0.028557
    35  H    0.030859
    36  H    0.056821
    37  H    0.035774
    38  H    0.022558
    39  H    0.041229
    40  H    0.042139
    41  H    0.042984
    42  H    0.066166
    43  H    0.035951
    44  H    0.034208
    45  H    0.021267
    46  H    0.034291
    47  H    0.026073
    48  H    0.039602
    49  H    0.032227
    50  H    0.025089
    51  H    0.059332
 Sum of Mulliken charges =  -0.00000

 Dipole moment (field-independent basis, Debye):
    X=             -0.0023    Y=              5.1019    Z=              0.5076  Tot=              5.1271
 Quadrupole moment (field-independent basis, Debye-Ang):
   XX=           -123.3492   YY=           -130.5946   ZZ=           -128.6090
   XY=             -0.6707   XZ=              3.6666   YZ=             -0.3993

  Exact polarizability: 232.716  -1.196 225.829   6.235   5.546 168.721
 Approx polarizability: 285.955  -2.823 315.371  10.955   8.546 249.151

 Summary of Natural Population Analysis:

                                       Natural Population
                Natural  -----------------------------------------------
    Atom  No    Charge         Core      Valence    Rydberg      Total
 -----------------------------------------------------------------------
      C    1   -0.22141      1.99917     4.20439    0.01786     6.22141
      C    2   -0.05987      1.99897     4.03518    0.02571     6.05987
      H    3    0.23512      0.00000     0.76108    0.00381     0.76488
      N    4   -0.51441      1.99934     5.49808    0.01699     7.51441
      C    5    0.41806      1.99901     3.54722    0.03571     5.58194
      N    6   -0.51864      1.99904     5.50665    0.01296     7.51864
      C    7   -0.21623      1.99910     4.19377    0.02336     6.21623
      C    8   -0.09016      1.99890     4.07615    0.01512     6.09016
      C    9   -0.21482      1.99909     4.19274    0.02299     6.21482
      N   10   -0.51697      1.99903     5.50507    0.01287     7.51697
      C   11    0.41811      1.99901     3.54840    0.03449     5.58189
      N   12   -0.51942      1.99934     5.50281    0.01727     7.51942
      C   13   -0.06030      1.99899     4.03556    0.02575     6.06030
      H   14    0.23779      0.00000     0.75847    0.00374     0.76221
      C   15   -0.22336      1.99918     4.20666    0.01752     6.22336
      C   16   -0.25833      1.99898     4.24408    0.01527     6.25833
      C   17   -0.64889      1.99922     4.63807    0.01159     6.64889
      C   18   -0.66007      1.99922     4.64966    0.01119     6.66007
      C   19   -0.64728      1.99919     4.63466    0.01342     6.64728
      C   20   -0.65654      1.99918     4.64183    0.01553     6.65654
      C   21   -0.26124      1.99898     4.24614    0.01611     6.26124
      C   22   -0.65058      1.99922     4.64059    0.01076     6.65058
      C   23   -0.65013      1.99922     4.63909    0.01182     6.65013
      H   24    0.21660      0.00000     0.78041    0.00299     0.78340
      H   25    0.21159      0.00000     0.78446    0.00395     0.78841
      H   26    0.23374      0.00000     0.76332    0.00294     0.76626
      H   27    0.21027      0.00000     0.78525    0.00448     0.78973
      H   28    0.23215      0.00000     0.76478    0.00307     0.76785
      H   29    0.21006      0.00000     0.78552    0.00441     0.78994
      H   30    0.20979      0.00000     0.78646    0.00375     0.79021
      H   31    0.22009      0.00000     0.77687    0.00304     0.77991
      H   32    0.22624      0.00000     0.76900    0.00476     0.77376
      H   33    0.23767      0.00000     0.75910    0.00323     0.76233
      H   34    0.22124      0.00000     0.77624    0.00252     0.77876
      H   35    0.21891      0.00000     0.77862    0.00247     0.78109
      H   36    0.23324      0.00000     0.76319    0.00357     0.76676
      H   37    0.22644      0.00000     0.77112    0.00243     0.77356
      H   38    0.21300      0.00000     0.78462    0.00239     0.78700
      H   39    0.22851      0.00000     0.76865    0.00285     0.77149
      H   40    0.23112      0.00000     0.76646    0.00242     0.76888
      H   41    0.23144      0.00000     0.76618    0.00238     0.76856
      H   42    0.24120      0.00000     0.75611    0.00269     0.75880
      H   43    0.22844      0.00000     0.76915    0.00241     0.77156
      H   44    0.22789      0.00000     0.76973    0.00239     0.77211
      H   45    0.22688      0.00000     0.76845    0.00467     0.77312
      H   46    0.21848      0.00000     0.77837    0.00315     0.78152
      H   47    0.21588      0.00000     0.78161    0.00251     0.78412
      H   48    0.22681      0.00000     0.77067    0.00252     0.77319
      H   49    0.21996      0.00000     0.77712    0.00292     0.78004
      H   50    0.21561      0.00000     0.78181    0.00259     0.78439
      H   51    0.24631      0.00000     0.75076    0.00293     0.75369
 =======================================================================
   * Total *   -0.00000     41.98139   117.54035    0.47825   160.00000

 ******    2 imaginary frequencies (negative Signs) ******

                      1                      2                      3
                      A                      A                      A
 Frequencies --    -67.9012               -59.7782                27.4381
 Red. masses --      5.0676                 4.7552                 3.1224
 Frc consts  --      0.0138                 0.0100                 0.0014
 IR Inten    --      0.7731                 1.1794                 0.0344

                      4                      5                      6
                      A                      A                      A
 Frequencies --     34.3426                71.3029                74.2244
 Red. masses --      3.4383                 2.7018                 2.5473
 Frc consts  --      0.0024                 0.0081                 0.0083
 IR Inten    --      0.7381                 0.4630                 0.1385

                      7                      8                      9
                      A                      A                      A
 Frequencies --     86.1990                91.7327               130.4879
 Red. masses --      2.6076                 2.8574                 2.7251
 Frc consts  --      0.0114                 0.0142                 0.0273
 IR Inten    --      0.1243                 0.7276                 0.4974

                     10                     11                     12
                      A                      A                      A
 Frequencies --    188.2410               192.8374               199.9591
 Red. masses --      1.3183                 1.3230                 1.2709
 Frc consts  --      0.0275                 0.0290                 0.0299
 IR Inten    --      1.8409                 1.8935                 2.4192

                     13                     14                     15
                      A                      A                      A
 Frequencies --    210.0619               214.0290               229.6046
 Red. masses --      2.0879                 1.8717                 2.0549
 Frc consts  --      0.0543                 0.0505                 0.0638
 IR Inten    --      1.1224                 3.6056                 2.0859

                     16                     17                     18
                      A                      A                      A
 Frequencies --    240.3425               243.1732               247.7062
 Red. masses --      1.4900                 1.1849                 1.2441
 Frc consts  --      0.0507                 0.0413                 0.0450
 IR Inten    --      0.2453                 1.0126                 0.3221

                     19                     20                     21
                      A                      A                      A
 Frequencies --    256.8757               264.9137               281.9490
 Red. masses --      1.6424                 1.7870                 2.4204
 Frc consts  --      0.0639                 0.0739                 0.1134
 IR Inten    --      0.1624                 1.2925                 0.6473

                     22                     23                     24
                      A                      A                      A
 Frequencies --    304.6431               305.2842               320.4764
 Red. masses --      3.0683                 2.6644                 2.8579
 Frc consts  --      0.1678                 0.1463                 0.1729
 IR Inten    --      0.1924                 0.0086                 1.4282

                     25                     26                     27
                      A                      A                      A
 Frequencies --    362.8812               371.2893               395.0134
 Red. masses --      2.5444                 2.3275                 2.1996
 Frc consts  --      0.1974                 0.1890                 0.2022
 IR Inten    --      0.0841                 0.3102                 1.3079

                     28                     29                     30
                      A                      A                      A
 Frequencies --    409.4494               428.9741               432.2122
 Red. masses --      3.1844                 2.9946                 2.4225
 Frc consts  --      0.3145                 0.3247                 0.2666
 IR Inten    --      1.4416                 5.1579                 0.6204

                     31                     32                     33
                      A                      A                      A
 Frequencies --    441.8576               479.8425               512.3616
 Red. masses --      2.4729                 3.4985                 2.7875
 Frc consts  --      0.2845                 0.4746                 0.4311
 IR Inten    --      0.3940                 1.3055                 1.5062

                     34                     35                     36
                      A                      A                      A
 Frequencies --    539.5898               583.1524               642.5866
 Red. masses --      3.3363                 4.0393                 4.1691
 Frc consts  --      0.5723                 0.8093                 1.0143
 IR Inten    --      4.7673                11.5381                11.3856

                     37                     38                     39
                      A                      A                      A
 Frequencies --    743.4231               764.2799               772.5093
 Red. masses --      3.9744                 5.0638                 5.4142
 Frc consts  --      1.2942                 1.7427                 1.9037
 IR Inten    --      0.2857                 4.8885                 1.1133

                     40                     41                     42
                      A                      A                      A
 Frequencies --    793.5036               797.9587               808.7767
 Red. masses --      3.2869                 2.7415                 2.3043
 Frc consts  --      1.2194                 1.0285                 0.8881
 IR Inten    --      2.4707                 2.4952                 2.8574

                     43                     44                     45
                      A                      A                      A
 Frequencies --    839.0448               868.0178               913.2680
 Red. masses --      6.2630                 5.7157                 1.2089
 Frc consts  --      2.5978                 2.5373                 0.5941
 IR Inten    --      0.1405                 5.1619                 1.1237

                     46                     47                     48
                      A                      A                      A
 Frequencies --    913.6659               917.6242               919.9194
 Red. masses --      1.6678                 1.6897                 1.6349
 Frc consts  --      0.8203                 0.8383                 0.8152
 IR Inten    --      1.5809                 1.4673                 1.1626

                     49                     50                     51
                      A                      A                      A
 Frequencies --    928.8243               934.1463               943.5943
 Red. masses --      1.3885                 1.9075                 1.7813
 Frc consts  --      0.7057                 0.9807                 0.9345
 IR Inten    --      1.8056                 0.6730                 1.0698

                     52                     53                     54
                      A                      A                      A
 Frequencies --    954.0678               964.1701               966.1564
 Red. masses --      1.3851                 1.3548                 1.4170
 Frc consts  --      0.7429                 0.7420                 0.7793
 IR Inten    --      1.4206                 1.3029                 2.3285

                     55                     56                     57
                      A                      A                      A
 Frequencies --    976.2903               991.4798              1013.9372
 Red. masses --      1.4281                 2.8616                 1.8857
 Frc consts  --      0.8020                 1.6574                 1.1422
 IR Inten    --      6.9143                11.9069                 7.5001

                     58                     59                     60
                      A                      A                      A
 Frequencies --   1020.5100              1025.2268              1027.0280
 Red. masses --      1.9747                 1.6456                 1.7257
 Frc consts  --      1.2117                 1.0191                 1.0725
 IR Inten    --      4.1941                 0.6846                 6.6140

                     61                     62                     63
                      A                      A                      A
 Frequencies --   1042.0784              1053.8557              1103.4427
 Red. masses --      2.4072                 2.3096                 3.1191
 Frc consts  --      1.5401                 1.5113                 2.2376
 IR Inten    --      7.6103                 9.6456                22.9195

                     64                     65                     66
                      A                      A                      A
 Frequencies --   1126.4777              1134.1760              1154.2410
 Red. masses --      2.4601                 2.3286                 1.7356
 Frc consts  --      1.8393                 1.7648                 1.3624
 IR Inten    --      2.5591                 7.2299                 0.8884

                     67                     68                     69
                      A                      A                      A
 Frequencies --   1159.5990              1161.8775              1186.3248
 Red. masses --      1.9321                 1.9433                 1.6162
 Frc consts  --      1.5307                 1.5456                 1.3401
 IR Inten    --      1.6606                 1.9200                11.9901

                     70                     71                     72
                      A                      A                      A
 Frequencies --   1193.8016              1206.9845              1211.3524
 Red. masses --      1.3132                 1.9056                 1.9104
 Frc consts  --      1.1027                 1.6356                 1.6517
 IR Inten    --      3.5206                21.9267                61.5488

                     73                     74                     75
                      A                      A                      A
 Frequencies --   1214.6917              1222.6169              1237.0807
 Red. masses --      1.7723                 1.5299                 1.7928
 Frc consts  --      1.5407                 1.3474                 1.6165
 IR Inten    --     11.9274                 6.8534                 6.1117

                     76                     77                     78
                      A                      A                      A
 Frequencies --   1271.1003              1273.5536              1276.5034
 Red. masses --      1.9601                 1.4849                 1.7396
 Frc consts  --      1.8659                 1.4190                 1.6701
 IR Inten    --     21.0382                21.3370                 1.8528

                     79                     80                     81
                      A                      A                      A
 Frequencies --   1284.8318              1292.3901              1298.3741
 Red. masses --      1.4745                 1.3186                 1.4346
 Frc consts  --      1.4341                 1.2977                 1.4248
 IR Inten    --     16.5040                13.6300                24.0700

                     82                     83                     84
                      A                      A                      A
 Frequencies --   1312.1821              1317.6072              1337.3086
 Red. masses --      1.5673                 1.6322                 1.3928
 Frc consts  --      1.5899                 1.6696                 1.4676
 IR Inten    --     13.4126                 8.5872                17.9862

                     85                     86                     87
                      A                      A                      A
 Frequencies --   1337.9269              1346.2403              1350.4357
 Red. masses --      1.3573                 1.5666                 1.4258
 Frc consts  --      1.4314                 1.6729                 1.5320
 IR Inten    --      0.1778                 4.2173                18.9959

                     88                     89                     90
                      A                      A                      A
 Frequencies --   1365.5572              1377.7614              1379.1003
 Red. masses --      1.9520                 1.9985                 2.2196
 Frc consts  --      2.1447                 2.2352                 2.4872
 IR Inten    --      4.4133                 4.2500                 9.0641

                     91                     92                     93
                      A                      A                      A
 Frequencies --   1385.5782              1388.7634              1393.2699
 Red. masses --      1.3699                 1.4616                 1.4830
 Frc consts  --      1.5496                 1.6609                 1.6961
 IR Inten    --     11.6953                 9.9352                16.2864

                     94                     95                     96
                      A                      A                      A
 Frequencies --   1395.0278              1398.5678              1398.8132
 Red. masses --      1.4526                 1.3882                 1.2844
 Frc consts  --      1.6656                 1.5999                 1.4807
 IR Inten    --      6.7669                15.3904                12.0868

                     97                     98                     99
                      A                      A                      A
 Frequencies --   1418.3765              1449.4017              1451.9379
 Red. masses --      1.5144                 1.0487                 1.0587
 Frc consts  --      1.7951                 1.2980                 1.3150
 IR Inten    --     75.7340                 1.7889                 2.4901

                    100                    101                    102
                      A                      A                      A
 Frequencies --   1452.9962              1454.8745              1456.6233
 Red. masses --      1.0589                 1.0775                 1.0404
 Frc consts  --      1.3172                 1.3437                 1.3006
 IR Inten    --      4.0866                 8.4356                 0.4313

                    103                    104                    105
                      A                      A                      A
 Frequencies --   1458.6556              1463.4365              1466.6021
 Red. masses --      1.1648                 1.0600                 1.0563
 Frc consts  --      1.4602                 1.3376                 1.3387
 IR Inten    --      0.9849                 3.7463                 7.3025

                    106                    107                    108
                      A                      A                      A
 Frequencies --   1471.5471              1474.5100              1476.0146
 Red. masses --      1.0640                 1.1190                 1.1050
 Frc consts  --      1.3575                 1.4335                 1.4184
 IR Inten    --      7.0861                 1.6149                 9.4698

                    109                    110                    111
                      A                      A                      A
 Frequencies --   1480.9336              1481.3542              1482.1900
 Red. masses --      1.1061                 1.0932                 1.0759
 Frc consts  --      1.4292                 1.4134                 1.3926
 IR Inten    --     10.4541                 9.1371                14.3846

                    112                    113                    114
                      A                      A                      A
 Frequencies --   1485.5911              1489.3055              1540.7816
 Red. masses --      1.0963                 1.0860                 2.8248
 Frc consts  --      1.4255                 1.4192                 3.9511
 IR Inten    --      3.8164                 9.7727                65.4676

                    115                    116                    117
                      A                      A                      A
 Frequencies --   1661.3941              1680.5734              1717.9824
 Red. masses --      6.8559                10.3985                 9.3929
 Frc consts  --     11.1496                17.3035                16.3338
 IR Inten    --    309.0779               253.4213                35.0817

                    118                    119                    120
                      A                      A                      A
 Frequencies --   2986.9462              2993.2870              3021.1972
 Red. masses --      1.0715                 1.0713                 1.0843
 Frc consts  --      5.6323                 5.6556                 5.8309
 IR Inten    --      3.4707               136.1256                14.9465

                    121                    122                    123
                      A                      A                      A
 Frequencies --   3030.5210              3032.0807              3043.9787
 Red. masses --      1.0660                 1.0840                 1.0597
 Frc consts  --      5.7684                 5.8715                 5.7852
 IR Inten    --     46.2226                24.6367                46.0168

                    124                    125                    126
                      A                      A                      A
 Frequencies --   3047.3478              3049.9278              3054.0222
 Red. masses --      1.0375                 1.0384                 1.0370
 Frc consts  --      5.6763                 5.6913                 5.6985
 IR Inten    --     25.4703                22.8515                25.1295

                    127                    128                    129
                      A                      A                      A
 Frequencies --   3058.2087              3062.0988              3062.5512
 Red. masses --      1.0380                 1.0381                 1.0384
 Frc consts  --      5.7200                 5.7352                 5.7384
 IR Inten    --     24.5097                25.6135                11.0274

                    130                    131                    132
                      A                      A                      A
 Frequencies --   3081.4322              3083.0586              3092.3832
 Red. masses --      1.0921                 1.0873                 1.0941
 Frc consts  --      6.1097                 6.0895                 6.1646
 IR Inten    --     29.5664                44.3082                35.4955

                    133                    134                    135
                      A                      A                      A
 Frequencies --   3100.2867              3103.2509              3106.0793
 Red. masses --      1.1046                 1.0956                 1.1017
 Frc consts  --      6.2553                 6.2162                 6.2624
 IR Inten    --     24.5255                33.7852                 8.0423

                    136                    137                    138
                      A                      A                      A
 Frequencies --   3136.5207              3138.2582              3148.1679
 Red. masses --      1.1030                 1.1021                 1.1034
 Frc consts  --      6.3932                 6.3952                 6.4434
 IR Inten    --     24.8325                25.2807                16.1177

                    139                    140                    141
                      A                      A                      A
 Frequencies --   3149.0013              3150.6935              3150.8635
 Red. masses --      1.1036                 1.1034                 1.1040
 Frc consts  --      6.4479                 6.4536                 6.4577
 IR Inten    --      5.2735                 6.1441                 8.4201

                    142                    143                    144
                      A                      A                      A
 Frequencies --   3152.9055              3153.9638              3156.4007
 Red. masses --      1.1037                 1.1027                 1.1037
 Frc consts  --      6.4645                 6.4629                 6.4786
 IR Inten    --     43.0393                28.8811                24.8937

                    145                    146                    147
                      A                      A                      A
 Frequencies --   3159.0259              3164.3179              3171.9353
 Red. masses --      1.1021                 1.1035                 1.1026
 Frc consts  --      6.4799                 6.5101                 6.5361
 IR Inten    --     12.1202                21.4895                11.7343

 - Thermochemistry -
 -------------------
 Temperature   298.150 Kelvin.  Pressure   1.00000 Atm.
 Atom     1 has atomic number  6 and mass  12.00000

 Molecular mass:   290.24705 amu.
 Principal axes and moments of inertia in atomic units:
                           1         2         3
     Eigenvalues --  4860.374677325.06475**********
           X            0.99998  -0.00078  -0.00687
           Y            0.00078   1.00000   0.00031
           Z            0.00687  -0.00031   0.99998
 This molecule is an asymmetric top.
 Rotational symmetry number  1.
 Warning -- assumption of classical behavior for rotation
           may cause significant error
 Rotational temperatures (Kelvin)      0.01782     0.01182     0.00811
 Rotational constants (GHZ):           0.37132     0.24638     0.16908
    2 imaginary frequencies ignored.
 Zero-point vibrational energy    1205583.0 (Joules/Mol)
                                  288.14126 (Kcal/Mol)
 Warning -- explicit consideration of  33 degrees of freedom as
           vibrations may cause significant error
 Vibrational temperatures:     39.48    49.41   102.59   106.79   124.02
          (Kelvin)            131.98   187.74   270.84   277.45   287.70
                              302.23   307.94   330.35   345.80   349.87
                              356.39   369.59   381.15   405.66   438.31
                              439.24   461.09   522.11   534.20   568.34
                              589.11   617.20   621.86   635.73   690.39
                              737.17   776.35   839.03   924.54  1069.62
                             1099.63  1111.47  1141.67  1148.08  1163.65
                             1207.20  1248.88  1313.99  1314.56  1320.26
                             1323.56  1336.37  1344.03  1357.62  1372.69
                             1387.23  1390.08  1404.66  1426.52  1458.83
                             1468.29  1475.07  1477.66  1499.32  1516.26
                             1587.61  1620.75  1631.83  1660.70  1668.40
                             1671.68  1706.86  1717.61  1736.58  1742.87
                             1747.67  1759.07  1779.88  1828.83  1832.36
                             1836.60  1848.59  1859.46  1868.07  1887.94
                             1895.74  1924.09  1924.98  1936.94  1942.98
                             1964.73  1982.29  1984.22  1993.54  1998.12
                             2004.60  2007.13  2012.23  2012.58  2040.73
                             2085.37  2089.01  2090.54  2093.24  2095.76
                             2098.68  2105.56  2110.11  2117.23  2121.49
                             2123.66  2130.73  2131.34  2132.54  2137.43
                             2142.78  2216.84  2390.38  2417.97  2471.79
                             4297.55  4306.67  4346.83  4360.24  4362.49
                             4379.61  4384.45  4388.17  4394.06  4400.08
                             4405.68  4406.33  4433.49  4435.83  4449.25
                             4460.62  4464.89  4468.96  4512.75  4515.25
                             4529.51  4530.71  4533.15  4533.39  4536.33
                             4537.85  4541.36  4545.13  4552.75  4563.71

 Zero-point correction=                           0.459182 (Hartree/Particle)
 Thermal correction to Energy=                    0.479965
 Thermal correction to Enthalpy=                  0.480909
 Thermal correction to Gibbs Free Energy=         0.410439
 Sum of electronic and zero-point Energies=           -882.790845
 Sum of electronic and thermal Energies=              -882.770063
 Sum of electronic and thermal Enthalpies=            -882.769119
 Sum of electronic and thermal Free Energies=         -882.839589

                     E (Thermal)             CV                S
                      KCal/Mol        Cal/Mol-Kelvin    Cal/Mol-Kelvin
 Total                  301.183             81.925            148.317
 Electronic               0.000              0.000              0.000
 Translational            0.889              2.981             42.894
 Rotational               0.889              2.981             34.296
 Vibrational            299.405             75.963             71.127
 Vibration     1          0.593              1.984              6.007
 Vibration     2          0.594              1.983              5.561
 Vibration     3          0.598              1.968              4.117
 Vibration     4          0.599              1.966              4.038
 Vibration     5          0.601              1.959              3.745
 Vibration     6          0.602              1.955              3.623
 Vibration     7          0.612              1.923              2.939
 Vibration     8          0.633              1.856              2.245
 Vibration     9          0.635              1.850              2.200
 Vibration    10          0.638              1.840              2.133
 Vibration    11          0.642              1.825              2.043
 Vibration    12          0.644              1.820              2.009
 Vibration    13          0.652              1.796              1.882
 Vibration    14          0.657              1.779              1.800
 Vibration    15          0.659              1.774              1.780
 Vibration    16          0.661              1.767              1.747
 Vibration    17          0.666              1.751              1.683
 Vibration    18          0.671              1.737              1.629
 Vibration    19          0.681              1.707              1.522
 Vibration    20          0.696              1.665              1.391
 Vibration    21          0.696              1.664              1.388
 Vibration    22          0.706              1.634              1.308
 Vibration    23          0.737              1.549              1.110
 Vibration    24          0.743              1.531              1.074
 Vibration    25          0.762              1.481              0.981
 Vibration    26          0.774              1.450              0.929
 Vibration    27          0.790              1.407              0.862
 Vibration    28          0.793              1.400              0.851
 Vibration    29          0.802              1.379              0.821
 Vibration    30          0.836              1.295              0.710
 Vibration    31          0.867              1.223              0.628
 Vibration    32          0.895              1.163              0.566
 Vibration    33          0.940              1.068              0.480

 Normal termination of Gaussian 16 at Sun Jan 15 18:05:18 2023.
